ITEM: TIMESTEP
100
ITEM: NUMBER OF ATOMS
50
ITEM: BOX BOUNDS xy xz yz pp pp pp
0.0000000000000000e+00 1.4276500000000000e+01 0.0000000000000000e+00
0.0000000000000000e+00 2.8567276500000002e+01 0.0000000000000000e+00
0.0000000000000000e+00 8.7105999999999995e+01 1.4276499999999999e-02
ITEM: ATOMS id x y z c_sz1[1] c_sz1[2] c_sz1[3] c_sz1[4] c_sz1[5] c_sz1[6]
5 -0.0131713 0.0205149 26.4498 -30448.7 -77713.6 -132083 156371 75983.6 -59429.3
25 0.00369627 2.83684 26.4359 -61994 -162068 -76553.2 56728.7 67149.6 37985.1
45 0.0205161 5.69964 26.444 -95380.2 61785.7 -76098.9 -13454.3 -78485.6 -53050.4
65 0.0192385 8.58647 26.4439 -22387.3 -47703 -215614 -104869 6625.82 -53804.9
85 -0.0258245 11.4502 26.4092 -86776.9 -156818 -88533.3 55380.3 -8945.88 63855.1
105 -0.0257817 14.2932 26.4355 -158121 -75026.9 -98605.6 86495.9 15196.3 -10077.7
125 -0.0213886 17.143 26.4201 -54542.2 -77302.4 -18757.2 21334.5 -62590.5 -51227.4
145 0.00117256 19.9685 26.442 87057.2 -25618.4 66875 51322.7 -22009.3 139937
165 0.00757722 22.8289 26.414 -30038.7 54309.3 -10616.9 -1840.75 32765.5 26314.9
185 0.023741 25.7056 26.4053 -83098.8 117753 30216.3 39610.5 9145.11 39296.2
205 2.83956 0.0130871 26.4152 65863.1 41747.9 -13031.8 93226.2 -3187.84 42331
225 2.85573 2.8526 26.422 -21146.4 -2633.36 -112818 -72164.1 65500.1 31135.5
245 2.84788 5.73567 26.4013 47946 39472.6 -61959.5 58357.8 44577.4 37364.4
265 2.88028 8.57443 26.4029 -174464 -58711 -64819.8 -36721.3 -45413.2 37858.6
285 2.88116 11.4179 26.4198 13059 35778.6 52601.2 95402.2 20426.3 -154660
305 2.84036 14.2856 26.4123 -2591.55 86734.3 -6468.36 -78295.4 28610.8 111839
325 2.86743 17.1562 26.4074 65384.2 -52723.3 -53481.3 32756.3 27054.5 -24401.2
345 2.8429 19.9913 26.4189 -2070.31 73669.3 92484.9 -113.549 590.471 122015
365 2.85681 22.8654 26.4411 73201.2 8245 -6486.6 19549.8 29727.8 71761
385 2.84937 25.6767 26.4279 -62946.6 -56534.1 -14158.2 -109121 -13508.3 -208.107
405 5.72981 0.0207461 26.4285 210889 138170 240634 -83596.6 64074.7 24581.6
425 5.71838 2.85732 26.4118 90555.2 46384.1 -1230.04 30208.8 35250 -79515.7
445 5.72304 5.7242 26.4142 52099.9 37675.4 80435.6 -69756.7 -55393.2 41746.9
465 5.69807 8.55035 26.4089 -218072 -134536 -72843.5 12348.1 70713 -157352
485 5.70756 11.4314 26.4499 -264095 -54617.5 -256509 -11653.2 1682.62 -73234.1
505 5.68482 14.3029 26.4378 -65812.9 -92417.5 25599.3 47718.1 68627 12838.3
525 5.71756 17.1212 26.4018 -80244.2 -195950 -123208 7015.88 -30658.9 -112134
545 5.6839 19.9689 26.4053 -232166 -124507 -114172 -113743 -218428 36608
565 5.71226 22.8522 26.4217 -738.363 58418.6 -45793 -22997.5 -9148.28 27762.2
585 5.70048 25.7136 26.4105 -35720.1 3096.29 -88318.7 1882.1 -3362.55 94971.3
605 8.57194 -0.0120983 26.402 14479.4 57694.1 70856.8 48617.4 -20953.3 -54300
625 8.58948 2.85809 26.4303 -107181 35220.2 -64363.3 5521.25 47526.5 -5341.47
645 8.54779 5.72101 26.4066 -126828 -141217 -191372 -36130.8 -66148.8 -29247.6
665 8.54515 8.55392 26.4347 -143418 -193738 -91318.6 30378.7 11156.5 57663
685 8.54985 11.4035 26.4303 -79507 -125746 -110385 -8890.35 127079 13779.7
705 8.5479 14.2746 26.4333 87812.4 108304 -15060.8 -135426 44413.9 -40118.4
725 8.5655 17.1448 26.4464 36609.8 -19960.3 -11194.6 -41601.8 21306.8 -11327.2
745 8.54707 19.9731 26.4442 -92722.7 -78399.4 -41879.8 -39493.8 80907.3 76804
765 8.57063 22.8637 26.4168 116597 68630 88061.3 27164.6 5724.79 105309
785 8.55428 25.6912 26.4092 3845.48 -99289 -76216.1 7733.35 -73592.6 -99049
805 11.4091 0.0292829 26.4453 -79907.9 34166.9 -83536.8 131702 -17923.2 -111376
825 11.4306 2.88644 26.3993 -152968 -248257 -149971 -28201.5 91459.8 26044.1
845 11.4361 5.71774 26.4181 56911.2 -69882.6 -2752.62 -105390 108020 72627
865 11.3998 8.57894 26.3995 78925.9 -9420.82 60179 55521.3 -163053 122284
885 11.4336 11.4022 26.4271 48377.4 38187.1 46854 122142 -8873.46 -28127
905 11.4293 14.2902 26.4087 34342.5 149896 27982.9 -11593.4 46785 -99788.9
925 11.4329 17.1505 26.4308 -139002 -176500 -147706 -45229.8 -54144.4 -145629
945 11.4185 19.9833 26.4324 -48991.2 -158224 -67085.1 25895.9 89003.5 115407
965 11.4386 22.8531 26.4117 -110359 -130573 -179119 -16802.4 33368.8 77127.1
985 11.4293 25.6782 26.4501 -19216.1 -122651 -256448 -118794 -12948 132129
ITEM: TIMESTEP
200
ITEM: NUMBER OF ATOMS
50
ITEM: BOX BOUNDS xy xz yz pp pp pp
0.0000000000000000e+00 1.4276500000000000e+01 0.0000000000000000e+00
0.0000000000000000e+00 2.8567276500000002e+01 0.0000000000000000e+00
0.0000000000000000e+00 8.7105999999999995e+01 1.4276499999999999e-02
ITEM: ATOMS id x y z c_sz1[1] c_sz1[2] c_sz1[3] c_sz1[4] c_sz1[5] c_sz1[6]
5 14.2767 0.00455948 26.4235 -8634.49 -9949.28 -33281.6 10337.9 20066 -15131
25 0.000180007 2.85977 26.4233 -4686.48 -28420.3 -4253.8 12426.7 -3916.63 16658
45 0.000202477 5.71498 26.4232 -22303.6 -30125.4 -21833.3 26073.5 -20761.2 29023.9
65 0.000208055 8.57024 26.423 -31224.1 -15776.9 -6445.92 -22072.4 -12299.7 -7590.89
85 14.2767 11.4256 26.4229 -20738.6 -39342.3 -15201.7 28369.2 -15630.6 26730.9
105 14.2767 14.2809 26.4229 -46253.5 -13305.4 -6553.37 24750.6 18463.2 -6166.9
125 14.2767 17.1363 26.423 -26145 335.512 -374.479 1647.65 -1065.63 3716.83
145 0.000140758 19.9917 26.4232 484.292 -18213.7 -37362.3 -1569.26 3460.61 31141.3
165 0.000130976 22.847 26.4234 -5134.4 -12362.7 -2403.61 9269.15 6163.41 -2391.84
185 0.000138837 25.7023 26.4235 -20231.7 -74.0709 -9232.96 -5101.77 16934.4 8615.44
205 2.85547 0.00454994 26.4235 -7774.34 -1813.52 -1286.82 4904.71 -4240.39 7491.01
225 2.85548 2.85975 26.4234 -1417.84 137.57 -728.693 839.632 3995.35 2745.37
245 2.85551 5.71497 26.4232 339.09 -17553 -19855.5 539.164 1461.9 22001
265 2.85551 8.57025 26.423 -16471.7 -1865.58 -22108 -5449.77 21117.5 8970.68
285 2.8555 11.4256 26.4229 -28288.6 -15171 -280.819 20738.5 2093.66 2526.89
305 2.8555 14.2809 26.4229 -12119.5 -10011.1 -5302.66 11123 -5952.11 10177.5
325 2.85547 17.1363 26.423 -6024.88 -11177.8 -14305 -8610.46 11042.7 16535.4
345 2.85546 19.9917 26.4232 -10213.8 -5228.21 527.844 8093.86 2665.43 3376.37
365 2.85546 22.847 26.4234 57.8387 -31045.6 -25895.8 -6052.56 -4131.48 -24931.4
385 2.85545 25.7023 26.4235 -527.302 -31128.9 484.521 -7833.77 3303 12600.9
405 5.71076 0.00454125 26.4235 -27989.4 -19855.5 -17730.8 -24570.5 -22783.9 -16133.2
425 5.71079 2.85974 26.4234 -5822.7 -1468.33 -2903.37 3844.29 7361.41 452.689
445 5.71081 5.71498 26.4232 -914.414 -3875.76 357.485 -2289.86 2888.46 4527.43
465 5.71082 8.57026 26.423 -1713.35 -38497.1 -15599.8 -8357.58 -3345.49 -22099
485 5.71083 11.4256 26.423 -1018.68 176.318 -13312.5 273.245 5960.53 1770.63
505 5.7108 14.2809 26.423 -44949.3 -37599.8 -18907 41294.9 31117.2 -23734.7
525 5.71078 17.1363 26.4231 -96.7404 -19191.5 -29186.8 2739.95 5199.25 -20522.1
545 5.71075 19.9917 26.4232 -77908.3 -11516 -27325.8 -31495.4 -45802.4 -14667.5
565 5.71074 22.847 26.4234 1127.16 -417.373 802.476 -431.1 1617.45 6132.5
585 5.71075 25.7023 26.4235 -3467.69 -14662.3 -9250.13 8904.31 -6210.01 18675.1
605 8.56607 28.5576 26.4235 642.925 -14787 -8109.91 3326.94 4129.36 -8387.51
625 8.5661 2.85976 26.4234 -42655.1 -437.08 967.905 6426.18 -4190.98 4516.08
645 8.56611 5.71498 26.4232 -14298.5 99.6881 -29242.9 1426.04 -19139.5 4887.32
665 8.56612 8.57026 26.4231 -33938.9 -13065.4 -2293.51 -21184.4 11587.1 8616.18
685 8.56611 11.4256 26.423 -1714.47 -34301 134.495 -7855.23 2245.57 3887.58
705 8.56609 14.2809 26.423 -16659.9 -5221.12 -6047.31 -9951.87 12039.4 9045.26
725 8.56606 17.1363 26.4231 156.462 -1998.97 -36497.6 -919.617 -1111.49 -6431.47
745 8.56603 19.9917 26.4232 -20726.8 -10146.1 -17741.3 -15587 21366.9 18554.6
765 8.56603 22.847 26.4234 -416.29 -19206.1 1822.99 -5774.51 1404.55 5284.26
785 8.56604 25.7023 26.4235 -11003.4 -12157.4 -10281.2 -12889.8 -11248.5 -8274.83
805 11.4214 0.00456312 26.4235 -15249.4 -25615 -20673.8 20976.5 20917.9 -20162.5
825 11.4214 2.85976 26.4234 -11326.7 -26624.9 -41046.5 -17826.5 24357.9 37647.4
845 11.4214 5.71499 26.4232 -22377.7 -5704.01 -668.759 -11453.6 7968.7 6038.69
865 11.4214 8.57025 26.423 -37592.5 -9081.35 -13737.4 18342.9 -21011.5 13832.1
885 11.4214 11.4256 26.4229 -3517.57 -31075 -4666.87 10185.7 -2129.24 14536.5
905 11.4214 14.2809 26.4229 -1937.47 269.208 -6713.02 -40.737 5209.21 2744.92
925 11.4214 17.1363 26.423 -2333.16 -145.928 150.733 -1432.85 1396.11 3533.22
945 11.4213 19.9917 26.4232 315.189 705.942 330.427 -282.057 825.601 3859.31
965 11.4213 22.847 26.4234 -16882.9 -2360.21 -17309.2 -7950.56 19544.3 12930.9
985 11.4213 25.7023 26.4235 -4958.58 -18658.9 -11445.7 11341.4 -8067.05 21368.2
ITEM: TIMESTEP
251
ITEM: NUMBER OF ATOMS
50
ITEM: BOX BOUNDS xy xz yz pp pp pp
0.0000000000000000e+00 1.4276500000000000e+01 0.0000000000000000e+00
0.0000000000000000e+00 2.8567276500000002e+01 0.0000000000000000e+00
0.0000000000000000e+00 8.7105999999999995e+01 1.4276499999999999e-02
ITEM: ATOMS id x y z c_sz1[1] c_sz1[2] c_sz1[3] c_sz1[4] c_sz1[5] c_sz1[6]
5 14.2766 0.00452937 26.4235 -8678.76 -10056.9 -33387.5 10328.6 19570.3 -15399.9
25 0.000125035 2.85973 26.4233 -4726.58 -28499.9 -4385.3 12403.8 -4451.08 16363.2
45 0.000148457 5.71495 26.4232 -22430.6 -30227.2 -22080.1 26090.8 -21253.1 28747.4
65 0.000159399 8.57022 26.423 -31299.7 -15856.2 -6595.34 -22032.4 -12782 -7820.05
85 14.2767 11.4255 26.4229 -20826.6 -39449.1 -15361.1 28359.8 -16085.2 26462.5
105 14.2766 14.2809 26.4229 -46370.9 -13432.5 -6713.95 24828 18061.9 -6441.69
125 14.2766 17.1363 26.423 -26305.7 168.815 -565.057 1633 -1466.45 3400.71
145 9.0999e-05 19.9917 26.4232 275.739 -18368.8 -37613.5 -1578.23 2987.28 30839.1
165 8.04008e-05 22.847 26.4233 -5348.28 -12496.5 -2611.09 9227.98 5657.42 -2633.86
185 8.6004e-05 25.7023 26.4235 -20313.6 -150.25 -9307.32 -5107.95 16450.2 8429.25
205 2.85541 0.00452075 26.4235 -7809.35 -1843.7 -1375.69 4936.61 -4710.99 7215.82
225 2.85544 2.85972 26.4234 -1495.44 50.0523 -900.899 855.732 3552.26 2455.39
245 2.85546 5.71495 26.4232 208.7 -17675.4 -20082.8 559.334 979.534 21754
265 2.85547 8.57022 26.423 -16508.7 -1926.32 -22248.6 -5431.32 20722.2 8728.84
285 2.85547 11.4255 26.4229 -28351.3 -15209.8 -397.993 20731.6 1726.64 2283.88
305 2.85545 14.2809 26.4229 -12178.7 -10098.3 -5435.69 11104.9 -6372.25 9900.42
325 2.85543 17.1363 26.423 -6133.26 -11274.2 -14407.1 -8659.69 10631.7 16244.2
345 2.8554 19.9917 26.4232 -10318.9 -5348.53 378.361 8055.88 2154.9 3105.93
365 2.85539 22.847 26.4234 -76.3964 -31203 -26088.9 -6075.59 -4690.57 -25252
385 2.8554 25.7023 26.4235 -540.019 -31146.4 385.596 -7893.49 2770.71 12318.4
405 5.71072 0.00451573 26.4235 -28107.7 -19938.9 -17868.9 -24585.2 -23235.3 -16450
425 5.71074 2.85972 26.4234 -5980.57 -1603.68 -3050.21 3822.66 6928.63 212.441
445 5.71077 5.71495 26.4232 -1095.87 -4042.16 150.106 -2248.58 2488.02 4289.88
465 5.71078 8.57023 26.423 -1793.95 -38563.6 -15749.4 -8342.83 -3702.75 -22362.4
485 5.71078 11.4256 26.423 -1130.41 75.6423 -13467.1 262.936 5570.06 1541.47
505 5.71076 14.2809 26.423 -45019.5 -37704.3 -19010.9 41269.4 30741.4 -24008.4
525 5.71073 17.1363 26.423 -161.146 -19254.2 -29328.9 2735.31 4783.1 -20873.6
545 5.71071 19.9916 26.4232 -78000.8 -11637.8 -27557.6 -31507.2 -46207.1 -14908.8
565 5.7107 22.847 26.4234 1034.22 -590.08 608.552 -418.809 1180.93 5831.94
585 5.7107 25.7023 26.4235 -3536.77 -14736.4 -9409 8921.37 -6698.73 18283.3
605 8.56601 28.5575 26.4235 499.531 -14910.6 -8206.39 3321.74 3600.24 -8728.64
625 8.56604 2.85973 26.4234 -42838.3 -569.599 798.711 6445.58 -4748.68 4229.12
645 8.56606 5.71496 26.4232 -14518.6 -89.0206 -29468 1451.5 -19601 4636.89
665 8.56608 8.57023 26.423 -34072.4 -13186.5 -2463.73 -21144.8 11184.2 8373.75
685 8.56607 11.4256 26.423 -1846.52 -34439.2 -64.4629 -7853.03 1885.93 3668.96
705 8.56605 14.2809 26.423 -16829.1 -5409.37 -6236.61 -9969.21 11638.6 8705.06
725 8.56602 17.1363 26.423 -7.53404 -2200.52 -36740.4 -911.276 -1496.23 -6751.46
745 8.566 19.9916 26.4232 -20901.2 -10324.1 -18004.6 -15589.7 20965 18340.4
765 8.56599 22.847 26.4234 -596.822 -19389.8 1587.95 -5796.9 958.473 4998.7
785 8.56599 25.7023 26.4235 -11122.3 -12316.5 -10447.7 -12856.1 -11739.2 -8535.56
805 11.4213 0.0045305 26.4235 -15320.2 -25677 -20760.4 20943.9 20335.8 -20422.5
825 11.4213 2.85973 26.4234 -11411.9 -26725.9 -41185.6 -17822.8 23764.1 37328.5
845 11.4213 5.71496 26.4232 -22580.4 -5914.25 -895.601 -11384 7409.04 5757.26
865 11.4214 8.57022 26.423 -37742.7 -9222.82 -13941.6 18363.1 -21466.1 13571.1
885 11.4214 11.4255 26.4229 -3700.47 -31262.1 -4871.43 10180.6 -2546.9 14319.9
905 11.4213 14.2809 26.4229 -2138.97 58.0653 -6916.1 -50.1779 4798.62 2440.5
925 11.4213 17.1363 26.423 -2528.88 -334.995 -120.114 -1441.84 943.641 3174.6
945 11.4213 19.9916 26.4232 72.486 521.224 24.2393 -298.554 411.175 3616.28
965 11.4213 22.847 26.4234 -17080.7 -2525.1 -17558.3 -7966.74 19125.2 12706.9
985 11.4213 25.7023 26.4235 -5066.23 -18776.7 -11599.4 11326.9 -8549.81 21156.7
