ITEM: TIMESTEP
100
ITEM: NUMBER OF ATOMS
50
ITEM: BOX BOUNDS xy xz yz pp pp pp
0.0000000000000000e+00 1.4276500000000000e+01 0.0000000000000000e+00
0.0000000000000000e+00 2.8581553000133002e+01 0.0000000000000000e+00
0.0000000000000000e+00 8.7105999999999995e+01 2.8553000132999998e-02
ITEM: ATOMS id x y z c_sz1[1] c_sz1[2] c_sz1[3] c_sz1[4] c_sz1[5] c_sz1[6]
5 -0.0132071 28.5774 26.4498 -30283.1 -77244.9 -132484 156321 75678.4 -61672.3
25 0.0036387 2.84084 26.4359 -62266.6 -161729 -77696.5 56705.4 66579.2 37151.3
45 0.020455 5.70379 26.4439 -95770.8 61990.5 -77239.9 -13474.2 -79064.8 -52383.2
65 0.0191994 8.59074 26.4439 -22791.3 -47768.7 -216498 -104882 6250.47 -52050.4
85 -0.0258299 11.4545 26.4091 -87055.7 -157098 -89053.7 55370.3 -8983.31 66037.3
105 -0.0257539 14.2975 26.4355 -158326 -75465.2 -98549.3 86529.9 15434.7 -8148.03
125 -0.0213419 17.1472 26.4201 -54547.8 -77814.5 -18071.5 21339.1 -62179 -50226.7
145 0.00121791 19.9726 26.4421 87236.1 -26088.3 68073.3 51283.4 -21603.7 139355
165 0.00759694 22.8328 26.4141 -29568 54236.2 -9149.72 -1887.38 32908 24032.5
185 0.0237335 25.7093 26.4054 -82681.9 118106 30788 39507 9119.74 36314.1
205 2.83952 28.57 26.4152 66143.4 42417.5 -13356.4 93224.6 -3458.18 40228.2
225 2.85568 2.85662 26.422 -21241.3 -2108.46 -113598 -72181.6 64977 30454.4
245 2.84782 5.73982 26.4013 47793 39825.9 -62796.1 58382.2 44020.8 37983.8
265 2.88024 8.57868 26.4028 -174593 -58634.3 -65495.7 -36607.8 -45723.8 39329.8
285 2.88116 11.4222 26.4198 13070.8 35738.5 52359.9 95427.5 20413.2 -152860
305 2.84039 14.2899 26.4123 -2646.08 86444.3 -6394.9 -78359 28933.3 113480
325 2.86749 17.1603 26.4074 65511.1 -53081.7 -52862 32743.4 27488.5 -23619.7
345 2.84295 19.9953 26.419 -1788.8 73286.1 93611.8 -186.227 1046.43 121450
365 2.85684 22.8693 26.4412 73732.4 8180.19 -5323.83 19479.3 29954.2 69652.1
385 2.84936 25.6805 26.428 -62394.8 -55976.7 -13503.3 -109129 -13598 -2979.9
405 5.72978 28.5776 26.4285 211150 138887 240364 -83710.3 63766.2 22658.2
425 5.71833 2.86135 26.4118 90491.3 46922.2 -1976.2 30191.9 34741.1 -80028
445 5.72299 5.72836 26.4141 51994.7 38020.1 79706.8 -69627.9 -55860.9 42420.6
465 5.69805 8.55459 26.4088 -218089 -134364 -73258.9 12590.5 70457.4 -155931
485 5.70758 11.4357 26.4499 -264108 -54644.7 -256595 -11398.7 1845.06 -71561.6
505 5.68487 14.3072 26.4378 -65867.9 -92702.2 25619.3 47867.6 69115.7 14301.5
525 5.71763 17.1254 26.4018 -80225.1 -196341 -122706 7046.38 -30053.1 -111421
545 5.68397 19.9729 26.4053 -231980 -124913 -113124 -113864 -217849 36001.8
565 5.7123 22.8561 26.4218 -313.198 58300.2 -44752.8 -23222.6 -8805.16 25661.5
585 5.70048 25.7175 26.4106 -35249.9 3553.01 -87791.7 1666.14 -3376.83 92278.5
605 8.5719 28.5448 26.402 14567.9 58339.8 70261.9 48322.9 -21331.2 -56393.4
625 8.58942 2.86212 26.4302 -107372 35674.2 -65239.7 5422.43 47000.8 -5889.58
645 8.54773 5.72518 26.4066 -127113 -141046 -192295 -36018.6 -66633.3 -28502.5
665 8.54512 8.55818 26.4346 -143690 -193771 -91937.1 30697.6 10899 59289
685 8.54986 11.4078 26.4303 -79771.9 -126015 -110705 -8499.51 127174 15697
705 8.54795 14.2789 26.4333 87614.4 107828 -14979.3 -135105 44927 -38456.6
725 8.56557 17.149 26.4464 36463.5 -20595.8 -10757.8 -41485.2 21959 -10556.4
745 8.54713 19.9771 26.4443 -92704.2 -78953.2 -40870.2 -39605.3 81544.3 76134.1
765 8.57068 22.8676 26.4168 116918 68381.9 89152.7 26901.4 6142.14 103136
785 8.55428 25.695 26.4092 4214.17 -98890.9 -75803 7358.51 -73542.1 -101913
805 11.4091 28.5861 26.4453 -79841.1 34731.9 -84076.4 131431 -18339.4 -113682
825 11.4305 2.89045 26.3992 -153314 -248005 -151368 -28320.5 90835.3 25274
845 11.436 5.72191 26.4181 56410 -69841.6 -4098.73 -105350 107524 73362.6
865 11.3998 8.58322 26.3994 78383.7 -9595.56 59056.2 55716.8 -163413 124088
885 11.4336 11.4065 26.4271 47949.6 37778.1 46371 122418 -8921.65 -25935.5
905 11.4293 14.2945 26.4087 34100.2 149346 28168.7 -11359.2 47132.6 -97841
925 11.433 17.1547 26.4308 -139139 -177145 -147122 -45108.3 -53602.1 -144673
945 11.4186 19.9874 26.4325 -48940.2 -158805 -65888.5 25862.6 89503.4 114732
965 11.4387 22.8569 26.4117 -110003 -130730 -177889 -16945 33690.4 74747
985 11.4293 25.682 26.4501 -18851.1 -122226 -255950 -119047 -13031.3 129057
ITEM: TIMESTEP
200
ITEM: NUMBER OF ATOMS
50
ITEM: BOX BOUNDS xy xz yz pp pp pp
0.0000000000000000e+00 1.4276500000000000e+01 0.0000000000000000e+00
0.0000000000000000e+00 2.8581553000133002e+01 0.0000000000000000e+00
0.0000000000000000e+00 8.7105999999999995e+01 2.8553000132999998e-02
ITEM: ATOMS id x y z c_sz1[1] c_sz1[2] c_sz1[3] c_sz1[4] c_sz1[5] c_sz1[6]
5 14.2766 0.00840711 26.4235 -8469.69 -9372.56 -33799 10269.3 19716.4 -17421.2
25 0.000123743 2.86377 26.4233 -4951.62 -28077.7 -5481.54 12391.7 -4462.58 15845.9
45 0.00014215 5.71914 26.4231 -22731.8 -30001.2 -23094.2 26056.2 -21348.3 29696.8
65 0.0001687 8.57452 26.423 -31634 -15868.5 -7433.65 -22067.9 -12702.7 -5838.77
85 14.2767 11.4299 26.4229 -21044.4 -39605.3 -15691.6 28382.7 -15687.3 28920.2
105 14.2767 14.2852 26.4229 -46439.1 -13758.6 -6463.19 24772.6 18722.1 -4227.92
125 14.2767 17.1405 26.423 -26153.3 -200.055 352.481 1645.77 -644.483 4723.29
145 0.000185554 19.9957 26.4232 697.426 -18679.1 -36077.7 -1609.5 3870.32 30561
165 0.000148358 22.8509 26.4234 -4701.64 -12412.9 -1002.37 9221.47 6313.32 -4696.01
185 0.000129629 25.7061 26.4235 -19785.1 359.713 -8635.43 -5161.96 16855.3 5620.5
205 2.85544 0.00841969 26.4235 -7513.18 -1139.71 -1586.06 4901.55 -4523.43 5398.71
225 2.85543 2.86377 26.4233 -1490.83 640.448 -1567.38 820.593 3484.71 2103.72
245 2.85545 5.71913 26.4231 176.706 -17230.1 -20687.7 572.78 888.373 22628.4
265 2.85548 8.5745 26.423 -16600.9 -1729.7 -22698.6 -5379.28 20770 10460.1
285 2.85551 11.4299 26.4229 -28344 -15241.8 -590.549 20722.7 2107.6 4353.11
305 2.85553 14.2852 26.4229 -12124.3 -10255.4 -5213.57 11059.8 -5643.04 11805.3
325 2.85552 17.1405 26.423 -5932.31 -11563.9 -13713.1 -8653.49 11510.6 17351.8
345 2.85551 19.9957 26.4232 -9930.43 -5574.11 1624.51 8012.25 3111.58 2824.47
365 2.85548 22.8509 26.4234 566.136 -31037 -24675.3 -6130.79 -3917.17 -27044.9
385 2.85545 25.7061 26.4236 12.9513 -30618.1 1108.79 -7846.13 3234.91 9796.93
405 5.71073 0.0084298 26.4235 -27731.9 -19141 -17946.9 -24690.7 -23072.4 -18073.1
425 5.71074 2.86378 26.4234 -5858.12 -927.346 -3606.77 3821.16 6868.36 -56.8552
445 5.71076 5.71914 26.4232 -990.663 -3531.23 -319.935 -2168.8 2396.12 5223.35
465 5.71079 8.5745 26.423 -1755.37 -38329.3 -16008.6 -8116.98 -3579.47 -20703.5
485 5.71084 11.4298 26.423 -1059.27 141.6 -13453.1 516.933 6110.38 3427.34
505 5.71085 14.2852 26.423 -44988 -37883.7 -18878.3 41452.3 31576.9 -22303.2
525 5.71085 17.1405 26.4231 -84.3437 -19630.1 -28731 2763.21 5824.47 -19809.1
545 5.71082 19.9957 26.4233 -77718.3 -11920.7 -26351.6 -31618.1 -45189.7 -15274.4
565 5.71078 22.8509 26.4235 1543.46 -478.855 1867.01 -660.69 1988.69 4039.57
585 5.71075 25.7061 26.4236 -2997.84 -14204.7 -8740.27 8675.98 -6205.18 15967.1
605 8.56602 28.5614 26.4235 773.148 -14170.1 -8581.59 3032.29 3743.83 -10462.2
625 8.56604 2.86379 26.4233 -42842.7 -4.93108 22.1834 6339.69 -4743.1 3970.42
645 8.56606 5.71915 26.4232 -14576.5 287.247 -30186.9 1545.43 -19609.3 5636.02
665 8.56609 8.57452 26.423 -34211 -13057.8 -2931.42 -20861.1 11352.6 10223.6
685 8.56612 11.4299 26.423 -1979.66 -34522.1 -149.612 -7424.69 2355.44 5798.12
705 8.56614 14.2852 26.423 -16890.4 -5687.22 -5977.82 -9600.24 12508.6 10724.4
725 8.56613 17.1405 26.4231 7.96883 -2631.44 -35969.6 -810.153 -476.384 -5663.95
745 8.5661 19.9957 26.4233 -20662.8 -10693 -16687.2 -15679.6 21989.1 17891.7
765 8.56607 22.8509 26.4235 -132.222 -19374.5 2920.03 -6022.04 1811.22 3059.15
785 8.56604 25.7061 26.4236 -10634.2 -11781.3 -9836.79 -13256.8 -11213.5 -11151.1
805 11.4213 0.00841279 26.4235 -15153.2 -25069.8 -21280.1 20722.3 20496.3 -22439.9
825 11.4213 2.86377 26.4233 -11643.7 -26311.9 -42353.4 -17938 23763.7 36889.8
845 11.4214 5.71916 26.4231 -22884 -5636.41 -2016.88 -11400.4 7455.37 6783.62
865 11.4214 8.57454 26.423 -38088.8 -9228.15 -14752.9 18516.2 -21343.8 15662.8
885 11.4214 11.4299 26.4229 -3938.15 -31459.6 -5171.61 10462 -2138.02 16797.3
905 11.4214 14.2852 26.4229 -2259.72 -303.904 -6619.97 215.473 5538.2 4714.8
925 11.4214 17.1405 26.4231 -2485.16 -823.531 853.798 -1320.68 1937.15 4499.15
945 11.4214 19.9957 26.4232 393.274 137.02 1551.21 -305.758 1292.53 3208.2
965 11.4214 22.8509 26.4235 -16579.2 -2506.21 -16009.8 -8126.85 19869.3 10569
985 11.4213 25.7061 26.4235 -4585.84 -18317.1 -10969.3 11102.8 -8101.95 18341.8
ITEM: TIMESTEP
251
ITEM: NUMBER OF ATOMS
50
ITEM: BOX BOUNDS xy xz yz pp pp pp
0.0000000000000000e+00 1.4276500000000000e+01 0.0000000000000000e+00
0.0000000000000000e+00 2.8581553000133002e+01 0.0000000000000000e+00
0.0000000000000000e+00 8.7105999999999995e+01 2.8553000132999998e-02
ITEM: ATOMS id x y z c_sz1[1] c_sz1[2] c_sz1[3] c_sz1[4] c_sz1[5] c_sz1[6]
5 14.2766 0.00837677 26.4235 -8526.06 -9497.67 -33909 10255.7 19224.2 -17686.7
25 6.74417e-05 2.86373 26.4233 -4982.58 -28148.3 -5604.08 12364.2 -4996.19 15536.9
45 8.7312e-05 5.71911 26.4231 -22843.2 -30086.3 -23323.9 26079.1 -21840.1 29419.9
65 0.000120052 8.57449 26.4229 -31704 -15953.2 -7584.09 -22026.8 -13177.5 -6069
85 14.2766 11.4299 26.4229 -21131.7 -39726.8 -15857.9 28370.8 -16148.7 28632.4
105 14.2767 14.2852 26.4229 -46569.7 -13887.9 -6630.05 24858.1 18301.9 -4514.55
125 14.2767 17.1405 26.423 -26323.3 -368.001 157.446 1636.84 -1052.63 4402.56
145 0.000136194 19.9957 26.4232 483.196 -18836.5 -36330.3 -1612.2 3396.45 30252.1
165 0.000100008 22.8509 26.4234 -4929.8 -12550.9 -1229.09 9189.33 5811.38 -4933.83
185 7.82922e-05 25.7061 26.4235 -19871.3 270.641 -8721.24 -5166.6 16374.6 5424.6
205 2.85538 0.00838965 26.4235 -7542.13 -1162.41 -1667.74 4930.37 -4990.74 5116.14
225 2.85538 2.86374 26.4233 -1565.11 563.139 -1734.6 843.666 3040.5 1795.84
245 2.8554 5.7191 26.4231 49.2377 -17355.5 -20917.4 595.11 411.518 22383.7
265 2.85544 8.57447 26.423 -16634.3 -1794.02 -22849.1 -5359.09 20387.9 10219.9
285 2.85547 11.4298 26.4229 -28410.9 -15286 -711.887 20724.2 1743.67 4123.88
305 2.85549 14.2852 26.4229 -12188.7 -10352.2 -5350.33 11052.1 -6071.31 11530.8
325 2.85548 17.1405 26.423 -6037.17 -11664.2 -13815.9 -8692.73 11097.6 17060.7
345 2.85545 19.9957 26.4232 -10045.9 -5696.06 1470.04 7981.52 2603.7 2550.42
365 2.85542 22.8509 26.4234 406.7 -31199.1 -24882.1 -6157.5 -4468.88 -27351.5
385 2.85539 25.7061 26.4235 -0.351724 -30636.3 1013.19 -7904.33 2711.49 9512.36
405 5.71068 0.00840106 26.4235 -27835.4 -19226.4 -18085.1 -24711.8 -23527.1 -18387.6
425 5.71069 2.86375 26.4233 -6001.53 -1039.12 -3749.46 3795.57 6424.14 -314.058
445 5.71071 5.71911 26.4232 -1177.65 -3683.66 -524.099 -2128.1 1990.68 4976.62
465 5.71076 8.57447 26.423 -1837.66 -38388 -16147.4 -8098.13 -3941.36 -20945.4
485 5.7108 11.4298 26.423 -1163.9 50.4323 -13600.4 505.585 5718.86 3212.63
505 5.71081 14.2852 26.423 -45055.9 -37986.4 -18974.2 41420.2 31203.8 -22559.6
525 5.7108 17.1404 26.4231 -141.847 -19700.2 -28865 2759.83 5397.43 -20157.2
545 5.71077 19.9957 26.4232 -77818 -12050.1 -26590.3 -31623.5 -45604.2 -15509.4
565 5.71074 22.8509 26.4234 1430.42 -655.207 1657.16 -640.74 1551.8 3742.55
585 5.7107 25.7061 26.4236 -3067.83 -14290 -8905.54 8688.49 -6690.05 15572.1
605 8.56597 28.5614 26.4235 621.275 -14308.2 -8692.09 3024.38 3213.13 -10816.2
625 8.56598 2.86376 26.4233 -43029.4 -147.396 -156.616 6360.45 -5293.82 3671.02
645 8.56601 5.71913 26.4231 -14801.9 102.488 -30417.8 1569.59 -20081.8 5389.23
665 8.56605 8.57449 26.423 -34353.8 -13179.2 -3105.8 -20829.3 10941.1 9977.58
685 8.56608 11.4298 26.4229 -2116.86 -34663.8 -348.482 -7432.41 1998.39 5591.5
705 8.5661 14.2852 26.423 -17051.8 -5873.34 -6160.08 -9627.04 12105.8 10388.2
725 8.56609 17.1404 26.4231 -144.153 -2826.73 -36198.6 -807.62 -861.1 -5970.43
745 8.56606 19.9957 26.4232 -20839.8 -10877.3 -16955.8 -15688.9 21582.1 17668.6
765 8.56603 22.8509 26.4234 -314.207 -19569 2674.85 -6047.26 1366.7 2782.68
785 8.56599 25.7061 26.4235 -10751.7 -11943.2 -10013.9 -13218.2 -11708.2 -11419.5
805 11.4213 0.00837779 26.4235 -15245.6 -25152.2 -21381.5 20694.2 19918.6 -22708.7
825 11.4213 2.86374 26.4233 -11735.3 -26413.6 -42495.6 -17939.2 23166.2 36566.7
845 11.4213 5.71912 26.4231 -23074.5 -5846.64 -2239.01 -11334.3 6897.77 6504.98
865 11.4213 8.5745 26.423 -38234.7 -9370.88 -14956.9 18538.1 -21810.7 15393.8
885 11.4214 11.4299 26.4229 -4125.3 -31643.7 -5376.07 10452.3 -2567.2 16562
905 11.4214 14.2852 26.4229 -2459.51 -505.94 -6822.17 200.129 5127.32 4406.83
925 11.4214 17.1405 26.423 -2678.56 -1003.86 585.246 -1335.42 1479.66 4136.92
945 11.4213 19.9957 26.4232 149.538 -46.8621 1242.58 -326.012 879.138 2956.23
965 11.4213 22.8508 26.4234 -16775.8 -2673.26 -16268.2 -8137.15 19447.3 10343.4
985 11.4213 25.7061 26.4235 -4698.71 -18450.1 -11132.1 11083.8 -8576.49 18121.6
