ITEM: TIMESTEP
100
ITEM: NUMBER OF ATOMS
50
ITEM: BOX BOUNDS xy xz yz pp pp pp
0.0000000000000000e+00 1.4276500000000000e+01 0.0000000000000000e+00
0.0000000000000000e+00 2.8581553000133002e+01 0.0000000000000000e+00
0.0000000000000000e+00 8.7105999999999995e+01 2.8553000132999998e-02
ITEM: ATOMS id x y z c_sz2[1] c_sz2[2] c_sz2[3] c_sz2[4] c_sz2[5] c_sz2[6]
17 14.2816 0.0203175 60.6755 -5038.21 161481 22417.2 -112467 -80751.8 -94340.3
37 14.291 2.88823 60.7053 180601 121181 155982 -29571.4 4040.22 33710.1
57 14.2881 5.72056 60.6837 61016.4 29739.8 61941.8 -25577 -73254.4 103317
77 14.2761 8.60475 60.6732 -101303 -106378 -170088 -132582 -122161 5984.11
97 14.2741 11.4459 60.6578 -48525.2 -109452 -37414.2 19998.4 8316.84 112983
117 14.2843 14.2726 60.6643 72057.7 -150329 -14987.8 -63540.1 56210.8 -81565.7
137 14.2989 17.1265 60.6771 13170 -110940 9391.1 111672 -51344.7 33989.3
157 14.2525 19.9826 60.6731 -66748.4 47978.8 -7960.56 -46275.1 -74254 -50896.3
177 14.2487 22.8743 60.706 -20398.1 80622.4 31114.7 40595.1 215606 -39873
197 14.2982 25.6954 60.6906 -79395.9 -83599 -65313.8 144539 -87632.3 109760
217 2.85569 -0.000825425 60.6747 -46212.9 69707.9 51617.5 3508.36 48499.3 62831.4
237 2.86475 2.8918 60.6664 58361.5 54900.8 6124.76 32503.7 -13126.3 7146.88
257 2.87617 5.71493 60.6802 -44504.5 -64822.2 12512.3 41325.4 78188.2 92600.9
277 2.85113 8.56209 60.6707 -7690.46 -116868 -115.97 90693.7 83180.6 23511.6
297 2.84581 11.4174 60.6721 98897.2 25224.5 16196.6 -132028 -3966.74 3907.2
317 2.85931 14.29 60.6995 -56179.2 70314 -106775 173694 61545.7 88659.6
337 2.86491 17.1754 60.682 34527.5 -6841.88 47840.4 -44141.4 82857.6 -119874
357 2.83986 20.0141 60.6984 219583 142495 160296 36623.6 82673.9 -34889.8
377 2.84714 22.861 60.704 112835 -2826.29 -38429.5 -16569.1 57106.3 -9843.86
397 2.8404 25.6947 60.6744 -46847 -94131.3 36488.7 15423.9 122722 -1140.11
417 5.68583 -0.00305222 60.6706 -245123 -111062 -85811.6 -96559.5 -58481 77332.1
437 5.72892 2.89794 60.7093 -40545.4 48651.1 -62941 -12624.2 -143878 -217004
457 5.69596 5.74775 60.6918 -51803.4 -120239 24772.7 -61557.4 36016.2 -7528.06
477 5.71382 8.56066 60.6856 -44546.4 -25440.8 -31803.4 74832.1 31283.6 16082.8
497 5.71967 11.4682 60.7023 117150 162573 77753.7 -43785.8 -40328.2 -10837.5
517 5.71145 14.3168 60.6755 -60116.1 -136305 -85583.6 -72650.4 100049 -22852.4
537 5.73336 17.1584 60.6953 -74446 -30231.8 27489.2 9118.8 -84438.8 -23226.2
557 5.70317 19.9912 60.7041 35793.3 28526 -88580.5 -106240 99328.6 94495.3
577 5.71213 22.8822 60.6768 -85445.6 -66144.5 -63073.6 -5695.49 -21776.9 45556.1
597 5.72118 25.7172 60.6813 -55601.9 -141376 -92695.7 -36019.5 -183714 -35825.4
617 8.54244 0.0302556 60.6936 -23670.8 -167997 -113669 -11491.4 -29827.6 13354.2
637 8.56555 2.8572 60.6747 -177638 -224853 -151710 14088.5 110088 -106060
657 8.56714 5.70806 60.6696 52272.4 15083.7 30.2154 -24361 -32962.9 -5025.19
677 8.55024 8.59948 60.6801 -120350 -80994.1 -76313.5 -8289.95 -50334.8 137586
697 8.54973 11.428 60.6769 -66736.8 -215536 -130960 88918.4 31918.3 -61178
717 8.57031 14.2741 60.6937 -132127 -146779 -129675 651.467 -114857 -67639.1
737 8.55043 17.1315 60.7025 -91139.6 63929.1 33211.2 -97575.6 88832 129476
757 8.55654 20.0116 60.6596 -38457.2 65763 -150283 -14146.8 24536.9 -11291.9
777 8.53966 22.8834 60.6744 -106339 -11185.7 33207 179062 43493.2 83914.4
797 8.55097 25.7285 60.6712 3653.76 -13928.6 16947.2 130737 11053.2 62982.9
817 11.4427 0.0186992 60.691 68463.6 156527 72729.7 6166.33 86158.2 13019.1
837 11.4082 2.9009 60.6594 -73360 -160479 -169481 89589.2 -138573 199363
857 11.4258 5.74164 60.7046 -22112.5 -94472.1 -156265 27135.3 -21598.8 -149148
877 11.4166 8.60299 60.6846 22860.7 -96661.4 41285.3 84145.6 97433.7 24328
897 11.4388 11.4214 60.7046 53482.4 -74445.9 65983.2 -40703.5 -76142.4 54076
917 11.3997 14.2801 60.7037 7210.55 126600 -84743.9 -58596 85698.2 61949
937 11.3942 17.1738 60.7088 -57062.7 -35883.7 -217656 122891 175088 -102041
957 11.4252 20.0167 60.6665 -59700.8 -28249.4 -73404.7 -45224.8 -8283.85 66625.6
977 11.4106 22.8799 60.6633 36749.7 -62529.5 -32102.3 15117.3 -86755.8 73422
997 11.4219 25.7031 60.6917 110848 -53612 -27536.6 -56414.9 23360 -15441.3
ITEM: TIMESTEP
200
ITEM: NUMBER OF ATOMS
50
ITEM: BOX BOUNDS xy xz yz pp pp pp
0.0000000000000000e+00 1.4276500000000000e+01 0.0000000000000000e+00
0.0000000000000000e+00 2.8581553000133002e+01 0.0000000000000000e+00
0.0000000000000000e+00 8.7105999999999995e+01 2.8553000132999998e-02
ITEM: ATOMS id x y z c_sz2[1] c_sz2[2] c_sz2[3] c_sz2[4] c_sz2[5] c_sz2[6]
17 -4.76255e-05 0.0201724 60.6821 -8998.8 -1589.1 -2479.89 -5117.4 6906.56 5426.06
37 -6.79907e-05 2.87542 60.6823 -7590.13 -3666.5 -6489.79 -5737.26 -7253.42 -2342.69
57 -9.2405e-05 5.73066 60.6825 -20124.7 -10695.9 327.653 14331.5 2749.57 2528.2
77 -0.000103465 8.58589 60.6827 -3555.84 -21377.4 -6.82411 -8193.4 1131.88 4454.9
97 14.2764 11.4412 60.6829 -781.744 -601.146 -38241.8 -231.423 -3093.01 580.743
117 -6.68983e-05 14.2965 60.6829 -1213.83 -34596.6 -20789.1 5859.84 5050.24 -22998.6
137 -5.98952e-05 17.1518 60.6827 -33587 -53201.7 -1998.53 42431.3 8340.28 -7027.01
157 14.2765 20.0072 60.6825 -25288 -31046.5 -5473.88 -28365.4 -11868.4 -11379.3
177 14.2765 22.8625 60.6823 -64988.1 -2251.39 -12938.1 14613.3 30519 -5265.47
197 -3.04135e-05 25.7179 60.6821 -31228.8 -37991.1 -1853.98 35491.3 -10426.7 13196.9
217 2.85525 28.5732 60.6821 -415.546 -36826.3 -3977.38 -7659.25 -2518.76 -12598.4
237 2.85522 2.87542 60.6823 -10694.8 -13775.7 -18332.2 -12793.3 15517.8 19845.9
257 2.8552 5.73065 60.6825 -14179 -29632.6 -1327.08 20401.2 6111.95 -3759.14
277 2.85518 8.5859 60.6827 -6025.18 -53525.6 -7645.09 -17670.6 -5745.95 -16256.8
297 2.85518 11.4412 60.6828 -4233.49 -43948.8 -11012 -13241.2 -5757.3 -18039.6
317 2.8552 14.2965 60.6828 -66.4522 -4872.55 -23009.2 351.253 437.68 14049.8
337 2.85524 17.1518 60.6827 -3006.64 -54562.3 -443.755 -13050.3 1886.39 8700.68
357 2.85526 20.0072 60.6825 -23460.1 -4771.86 -48.1348 11599.6 4251.52 212.505
377 2.85527 22.8625 60.6822 -8001.48 910.316 -16398.9 -1523.26 12836.7 3749.4
397 2.85527 25.7178 60.6821 -27613.3 -36775.6 -3862.15 -33277.3 -12669.3 -13222.7
417 5.71054 28.5732 60.6821 -31121.4 -43798.1 -304.999 -38048 -7827.22 -7430.92
437 5.71052 2.87542 60.6823 -27232.3 -45454.1 -28121.5 -35833.4 -27847.6 -33409.6
457 5.71049 5.73066 60.6825 -10627.6 -13374.4 -1940.94 11800.1 5974.7 -1846.41
477 5.71048 8.58591 60.6827 -127.731 -21315.9 -661.447 -1001.62 1188.33 7605.08
497 5.71048 11.4412 60.6828 -3213.28 -26506 -8258.75 -9046.85 -3951.88 -10742.1
517 5.7105 14.2965 60.6828 -1578.71 -37661.7 -828.084 7925.72 -206.564 8478.69
537 5.71054 17.1518 60.6827 -33010.2 -3424.63 -3169.28 -11021.7 -10003.6 -764.014
557 5.71056 20.0072 60.6825 -9165.52 -12305.5 -23517.5 -11176.4 15624.4 19844.7
577 5.71056 22.8625 60.6822 1025.07 -10395.3 1212.21 -453.007 312.25 2551.17
597 5.71056 25.7178 60.6821 -23357.8 1184.19 1523.53 -2089.83 -2803.89 1397.51
617 8.56585 0.0201614 60.6821 -14815.6 -1703.5 -15009.1 6356.86 16708.8 -4272.55
637 8.56584 2.87543 60.6823 -3345.9 -7130.08 990.426 -5260.17 697.941 3216.49
657 8.56582 5.73066 60.6825 -411.507 -31617.3 -8773.15 3315.11 2693.8 -12944.8
677 8.5658 8.5859 60.6827 -8570.35 -492.022 -843.289 325.756 3154.94 3934.67
697 8.5658 11.4412 60.6829 -14846.5 -5418.14 -579.315 -8607.33 1738.24 4265.87
717 8.56582 14.2965 60.6828 -6695 -14543.4 -16151 9729.2 -9165.68 18439.4
737 8.56584 17.1518 60.6827 -17326.5 -33290.6 -10251.3 -24021.4 13856.8 21146.8
757 8.56586 20.0072 60.6825 -12144.7 -1146.53 -15888.4 4817.95 -13871.4 7327.82
777 8.56589 22.8625 60.6822 -55226 -17050.9 -4665.01 31827.9 -17653.2 11680.5
797 8.56586 25.7179 60.6821 -12392.7 -4426.96 -7505.99 8696.77 -10756.7 8773.91
817 11.4211 28.5732 60.6821 -6350.41 748.086 -231.382 292.872 -3161.82 2377.45
837 11.4211 2.87542 60.6823 -199.577 -15190.1 -10586.4 2607.79 -1711.52 16488
857 11.4211 5.73066 60.6825 -2013.91 -26040.2 -34262.9 -6850.33 -7020.38 -25851.6
877 11.4211 8.5859 60.6828 -7611.32 -12301.9 -294.427 9198.88 994.2 4033.39
897 11.4211 11.4412 60.6829 -17252 -19310.5 -12994.7 17787.4 -13541 19188.6
917 11.4211 14.2965 60.6829 -25283.6 -13776.9 -20434 -18212 22886.3 19781.4
937 11.4212 17.1518 60.6827 -45261.7 -21002 -49608.3 30823.5 47699.8 -29344.4
957 11.4212 20.0072 60.6825 -269.985 -4473.39 -10889.9 -1517.46 2716.56 9368.47
977 11.4212 22.8625 60.6823 -4878.82 -13420 -22957.6 9004.14 -11326.8 19912.3
997 11.4212 25.7179 60.6821 1090.65 -5202.07 -3170.79 21.9081 293.975 6958.18
ITEM: TIMESTEP
251
ITEM: NUMBER OF ATOMS
50
ITEM: BOX BOUNDS xy xz yz pp pp pp
0.0000000000000000e+00 1.4276500000000000e+01 0.0000000000000000e+00
0.0000000000000000e+00 2.8581553000133002e+01 0.0000000000000000e+00
0.0000000000000000e+00 8.7105999999999995e+01 2.8553000132999998e-02
ITEM: ATOMS id x y z c_sz2[1] c_sz2[2] c_sz2[3] c_sz2[4] c_sz2[5] c_sz2[6]
17 -0.000104069 0.0201307 60.6821 -9016.08 -1583.45 -2359.46 -5122.35 7474.31 5795.16
37 -0.000127766 2.87538 60.6823 -7552.12 -3618.42 -6347.51 -5726.56 -6713.39 -1964.11
57 -0.000149535 5.73061 60.6825 -19951.7 -10524.1 574.704 14377.4 3233.56 2917.3
77 -0.000161111 8.58585 60.6827 -3355.17 -21215.1 262.217 -8199.33 1637.37 4918.55
97 14.2763 11.4411 60.6828 -593.671 -443.208 -37987.5 -218.351 -2536.22 1012.96
117 -0.000135265 14.2964 60.6828 -1056.24 -34379.3 -20517.4 5876.28 5648.18 -22614.7
137 -0.000110218 17.1518 60.6827 -33446.6 -53008.4 -1781.96 42426.1 8863.2 -6688.82
157 14.2764 20.0071 60.6825 -25183.7 -30865.7 -5276.82 -28364.1 -11337.2 -11087.5
177 14.2764 22.8625 60.6823 -64955.6 -2151.92 -12820.2 14644.5 31026.8 -4998.41
197 -8.2614e-05 25.7178 60.6821 -31211 -37957.6 -1724.82 35511.8 -9917.96 13544.4
217 2.85518 28.5731 60.6821 -410.041 -36848.8 -3871.63 -7658.75 -1940.26 -12266.5
237 2.85515 2.87538 60.6823 -10675.7 -13745.5 -18191.4 -12828.5 16134.1 20282.2
257 2.85513 5.73061 60.6825 -14042.9 -29478.6 -1102.48 20403.8 6716.21 -3359.71
277 2.85512 8.58586 60.6827 -5815.89 -53309.3 -7325.13 -17709.8 -5177.43 -15873.1
297 2.85512 11.4411 60.6828 -4026.21 -43730 -10696.2 -13213.4 -5120 -17644.2
317 2.85514 14.2964 60.6828 113.957 -4666.31 -22764.9 356.521 1041.82 14448.3
337 2.85517 17.1518 60.6827 -2899.92 -54392 -252.494 -13030.9 2497.62 9063.76
357 2.85519 20.0071 60.6825 -23380.3 -4643.25 110.344 11624.2 4845.27 504.597
377 2.85521 22.8625 60.6822 -7966.34 994.355 -16311.8 -1527.5 13358.3 4046.15
397 2.8552 25.7178 60.6821 -27615.4 -36764.7 -3800.33 -33297.2 -12108.5 -12951.4
417 5.71048 28.5731 60.6821 -31038.4 -43794 -156.606 -38099.5 -7210.48 -7071.8
437 5.71045 2.87537 60.6822 -27105.2 -45378.2 -27880.4 -35856.1 -27240.3 -32981
457 5.71043 5.7306 60.6825 -10425.4 -13152.4 -1644.09 11789.1 6587.52 -1359.7
477 5.71041 8.58586 60.6827 117.566 -21032 -337.995 -1015.15 1810.64 8043.7
497 5.71041 11.4411 60.6828 -2983.8 -26287.9 -7968.08 -9068.82 -3366.55 -10371.3
517 5.71043 14.2964 60.6828 -1379.48 -37427.6 -583.786 7909.36 410.773 8885.62
537 5.71046 17.1518 60.6827 -32831.6 -3241.09 -3017.94 -11013.5 -9335.86 -449.021
557 5.71049 20.0071 60.6825 -9063.79 -12227.3 -23384.4 -11150.2 16276.4 20147
577 5.7105 22.8625 60.6822 1059.08 -10327.9 1330.04 -392.172 910.12 2836.5
597 5.7105 25.7178 60.6821 -23300.4 1210.95 1608.68 -2084.2 -2229.82 1631.77
617 8.56579 0.0201208 60.6821 -14660.8 -1667.24 -14814.2 6341.21 17253 -3921.09
637 8.56577 2.87537 60.6822 -3102.58 -6953.28 1299.8 -5297.52 1297.77 3711.74
657 8.56575 5.7306 60.6825 -141.515 -31323.9 -8427.48 3312.77 3330.08 -12460
677 8.56573 8.58585 60.6827 -8289.54 -186.957 -500.284 342.231 3776.73 4412.54
697 8.56574 11.4411 60.6828 -14593.2 -5156.61 -272.115 -8601.1 2293.47 4722.92
717 8.56575 14.2964 60.6828 -6438.49 -14319.8 -15924.9 9697.25 -8629.67 18827.7
737 8.56578 17.1518 60.6827 -17174.1 -33156.4 -10133.9 -24048.3 14432.2 21474
757 8.5658 20.0071 60.6825 -12009 -1042.6 -15807.5 4764.54 -13279 7632.27
777 8.56581 22.8625 60.6822 -55115.2 -16944.5 -4571.72 31871.2 -17030.7 11900.9
797 8.56581 25.7178 60.6821 -12261.2 -4357.16 -7348.94 8732.03 -10218.9 8999.46
817 11.4211 28.5731 60.6821 -6239.91 829.359 -56.7443 267.961 -2704.57 2721.47
837 11.4211 2.87538 60.6823 26.0897 -15004.3 -10295.9 2619.9 -1145.47 16879.1
857 11.4211 5.7306 60.6825 -1699.55 -25762.5 -33893.3 -6803.96 -6435.2 -25368.1
877 11.4211 8.58584 60.6827 -7329.65 -12031 43.1723 9185.65 1578.4 4515.39
897 11.4211 11.4411 60.6828 -16982.5 -19023.3 -12652 17788.6 -12937 19659
917 11.4211 14.2964 60.6828 -25001.6 -13456.9 -20096.2 -18173.6 23439.1 20170.3
937 11.4211 17.1518 60.6827 -45083.1 -20807.8 -49402.7 30853.2 48203.5 -28974.5
957 11.4211 20.0071 60.6825 -106.704 -4292.62 -10739.1 -1515.51 3211.05 9643.67
977 11.4211 22.8625 60.6823 -4754.95 -13319 -22839.4 8961.94 -10800 20202.4
997 11.4211 25.7178 60.6821 1171.7 -5160.38 -3025.56 -10.0149 792.465 7251.53
