Generated by pymatgen.io.lammps.data.LammpsData

167  atoms

  1  atom types

0.000000 14.276500  xlo xhi
0.000000 28.553000  ylo yhi
0.000000 87.106000  zlo zhi
0.000000 0.000000 0.014276  xy xz yz

Masses

1  55.847

Atoms

71    1  1  0.003778  8.575526 43.554833
72    1  1  0.002331  8.575294 46.407141
90    1  1  0.003870 11.429815 40.700388
91    1  1 14.275028 11.428059 43.552595
92    1  1 14.275897 11.427337 46.408680
110   1  1  0.002515 14.282477 40.699701
111   1  1 14.275991 14.284470 43.551396
112   1  1 14.272825 14.285635 46.409370
251   1  1  2.858419  5.720935 43.554739
252   1  1  2.857234  5.720793 46.406877
270   1  1  2.875069  8.591695 40.717036
271   1  1  2.872201  8.589474 43.561702
272   1  1  2.880588  8.598714 46.386389
273   1  1  2.855748  8.575213 49.262616
289   1  1  2.858595 11.429243 37.846131
290   1  1  2.872298 11.436682 40.714346
291   1  1  2.811040 11.426464 43.551000
292   1  1  2.856423 11.417932 46.411782
293   1  1  2.855054 11.430402 49.262603
309   1  1  2.857502 14.281773 37.845579
310   1  1  2.880779 14.261728 40.723143
311   1  1  2.856520 14.287569 43.541993
312   1  1  2.851188 14.284474 46.408209
313   1  1  2.853760 14.286991 49.261063
330   1  1  2.856031 17.138329 40.699198
331   1  1  2.855245 17.138734 43.553991
332   1  1  2.853851 17.137640 46.410243
450   1  1  5.712727  5.720756 40.701213
451   1  1  5.711365  5.715412 43.553580
452   1  1  5.709741  5.717666 46.409259
469   1  1  5.712816  8.575375 37.846415
470   1  1  5.719736  8.589359 40.714700
471   1  1  5.709111  8.528588 43.551312
472   1  1  5.699910  8.574668 46.412072
473   1  1  5.711557  8.574445 49.263057
489   1  1  5.711550 11.428088 37.840624
490   1  1  5.709206 11.426294 40.653492
491   1  1  6.424488 12.142351 44.266686
492   1  1  5.719206 11.437504 46.472911
493   1  1  5.705345 11.424282 49.270854
509   1  1  5.710017 14.284152 37.842459
510   1  1  5.700095 14.287405 40.699077
511   1  1  5.719357 14.348661 43.561595
512   1  1  5.765551 14.197371 46.321102
513   1  1  5.707466 14.283480 49.259462
530   1  1  5.711828 17.138779 40.698424
531   1  1  5.705530 17.146997 43.547867
532   1  1  5.707555 17.136039 46.406736
533   1  1  5.709574 17.132596 49.255549
650   1  1  8.565664  5.720617 40.700615
651   1  1  8.567844  5.717686 43.552232
652   1  1  8.568331  5.715590 46.409865
669   1  1  8.565759  8.574775 37.846276
670   1  1  8.544997  8.598367 40.723712
671   1  1  8.570336  8.574497 43.542445
672   1  1  8.566669  8.569873 46.408658
673   1  1  8.568779  8.573390 49.261805
689   1  1  8.568035 11.426739 37.842890
690   1  1  8.570431 11.417430 40.699362
691   1  1  8.630971 11.437275 43.561794
692   1  1  8.479130 11.484026 46.321351
693   1  1  8.564781 11.426523 49.259783
709   1  1  8.568613 14.284758 37.840383
710   1  1  8.566875 14.284013 40.694261
711   1  1  8.479213 14.197169 43.608119
712   1  1  8.520457 14.238981 46.362706
713   1  1  8.567026 14.285988 49.261051
730   1  1  8.569051 17.137529 40.697363
731   1  1  8.564960 17.135914 43.550109
732   1  1  8.567119 17.137630 46.409247
733   1  1  8.560981 17.131560 49.254514
870   1  1 11.422604  8.574557 40.699899
871   1  1 11.422240  8.574343 43.554571
872   1  1 11.420532  8.573397 46.410772
890   1  1 11.422335 11.429555 40.699205
891   1  1 11.429213 11.423835 43.548368
892   1  1 11.417794 11.426236 46.407412
893   1  1 11.414169 11.428651 49.256145
910   1  1 11.420718 14.286109 40.697803
911   1  1 11.417884 14.283203 43.550293
912   1  1 11.418697 14.286037 46.409770
913   1  1 11.412521 14.280056 49.254811
931   1  1 11.414358 17.132285 43.552240
932   1  1 11.412612 17.131387 46.403309
1050  1  1  1.436365  7.153307 42.130074
1051  1  1  1.434619  7.152409 44.981136
1069  1  1  1.436458 10.004649 39.278570
1070  1  1  1.430281  9.998666 42.123607
1071  1  1  1.431093 10.001499 44.983080
1072  1  1  1.428259  9.998597 47.835565
1089  1  1  1.434809 12.856058 39.277224
1090  1  1  1.431184 12.858469 42.125960
1091  1  1  1.419764 12.860869 44.985006
1092  1  1  1.426643 12.855151 47.834169
1110  1  1  1.428444 15.711303 42.122599
1111  1  1  1.426737 15.710356 44.978805
1112  1  1  1.426374 15.710142 47.833483
1249  1  1  4.287998  7.153134 39.278879
1250  1  1  4.281858  7.147064 42.124136
1251  1  1  4.284017  7.148781 44.983267
1252  1  1  4.279925  7.147167 47.836004
1269  1  1  4.281953  9.998717 39.272330
1270  1  1  4.328521 10.045721 42.170671
1271  1  1  4.369764 10.087532 44.925254
1272  1  1  4.282102 10.000692 47.839106
1273  1  1  4.280365  9.999953 50.692977
1289  1  1  4.284197 12.858187 39.273586
1290  1  1  4.369847 12.800679 42.212020
1291  1  1  4.218006 12.847429 44.971579
1292  1  1  4.278547 12.867276 47.834012
1293  1  1  4.280944 12.857971 50.690485
1309  1  1  4.280198 15.711314 39.271557
1310  1  1  4.282308 15.714827 42.124713
1311  1  1  4.278642 15.710201 44.990932
1312  1  1  4.303980 15.686333 47.809671
1313  1  1  4.283221 15.709924 50.687116
1330  1  1  4.280645 18.569099 42.123509
1331  1  1  4.281133 18.567003 44.981150
1332  1  1  4.283313 18.564071 47.832776
1449  1  1  7.139404  7.152097 39.277843
1450  1  1  7.141422  7.148655 42.126647
1451  1  1  7.143446  7.137697 44.985509
1452  1  1  7.137149  7.145917 47.834943
1469  1  1  7.141512 10.001226 39.273918
1470  1  1  7.083427 10.087331 42.212273
1471  1  1  7.129620  9.936041 44.971777
1472  1  1  7.148882  9.997301 47.834291
1473  1  1  7.138960 10.000559 50.690901
1489  1  1  7.143632 12.860428 39.262515
1490  1  1  7.129772 12.847202 42.060461
1491  1  1  7.139772 12.858413 47.879882
1492  1  1  7.137428 12.856622 50.692751
1508  1  1  7.137420 15.710260 39.270305
1509  1  1  7.149067 15.710032 42.121298
1510  1  1  7.139867 15.756110 44.982065
1511  1  1  7.129242 15.695341 47.818682
1512  1  1  7.136163 15.709325 50.686978
1529  1  1  7.139234 18.567023 42.124115
1530  1  1  7.137612 18.569276 44.979802
1531  1  1  7.136250 18.563931 47.832178
1649  1  1  9.995126  7.147054 42.123139
1650  1  1  9.993731  7.145960 44.979385
1651  1  1  9.992945  7.146367 47.834170
1668  1  1  9.995219  9.997714 39.272318
1669  1  1  9.997790 10.000229 42.125167
1670  1  1  9.992458  9.997133 44.991380
1671  1  1  9.968197 10.022977 47.810225
1672  1  1  9.991476 10.002938 50.687783
1688  1  1  9.993924 12.854307 39.270765
1689  1  1  9.992554 12.866774 42.121589
1690  1  1 10.037937 12.858240 44.982373
1691  1  1  9.976680 12.848024 47.819028
1692  1  1  9.990384 12.855467 50.687245
1708  1  1  9.993229 15.709492 39.270746
1709  1  1  9.968389 15.685986 42.146982
1710  1  1  9.976776 15.695225 44.971675
1711  1  1  9.973909 15.693004 47.816347
1729  1  1  9.991742 18.563896 42.126496
1730  1  1  9.990557 18.563754 44.978643
1869  1  1 12.852653  9.999067 42.124006
1870  1  1 12.849486 10.000232 44.981977
1871  1  1 12.846462 10.002229 47.833667
1889  1  1 12.849580 12.857368 42.124692
1890  1  1 12.850450 12.856645 44.980779
1891  1  1 12.845107 12.854892 47.832987
1909  1  1 12.846646 15.709406 42.126230
1910  1  1 12.845199 15.709173 44.978544

