Generated by pymatgen.io.lammps.data.LammpsData

1999  atoms

   1  atom types

0.000000 14.276500  xlo xhi
0.000000 28.553000  ylo yhi
0.000000 87.106000  zlo zhi
0.000000 0.000000 0.000000  xy xz yz

Masses

1  55.847

Atoms

1    -2  1 14.276500 28.552979 14.985007
2    -2  1 14.276500 28.552976 17.855186
3    -2  1 14.276500 28.552969 20.712499
4    -2  1 14.276500 28.552964 23.567966
5    -2  1 14.276500 28.552974 26.423392
6    -2  1 14.276500  0.000034 29.278815
7    -2  1 14.276500  0.000188 32.134138
8     0  1 14.276500  0.000336 34.989168
9     0  1 14.276500  0.000355 37.843888
10    0  1 14.276500  0.000307 40.698499
11    0  1 14.276500  0.000274 43.553157
12    0  1 14.276500  0.000275 46.407847
13    0  1 14.276500  0.000309 49.262504
14    0  1 14.276500  0.000357 52.117113
15   -2  1  0.000000  0.000340 54.971829
16   -2  1 14.276500  0.000193 57.826850
17   -2  1 14.276500  0.000041 60.682159
18   -2  1 14.276500 28.552979 63.537549
19   -2  1 14.276500 28.552962 66.392636
20   -2  1 14.276500 28.552951 69.234530
21   -2  1 14.276500  2.855244 14.985006
22   -2  1 14.276500  2.855238 17.855172
23   -2  1 14.276500  2.855222 20.712469
24   -2  1 14.276500  2.855209 23.567903
25   -2  1 14.276500  2.855235 26.423277
26   -2  1 14.276500  2.855368 29.278655
27   -2  1 14.276500  2.855706 32.134065
28    0  1 14.276500  2.856283 34.989496
29    0  1  0.000000  2.856604 37.844449
30    0  1 14.276500  2.856474 40.698795
31    0  1  0.000000  2.856388 43.553246
32    0  1 14.276500  2.856389 46.407757
33    0  1 14.276500  2.856477 49.262207
34    0  1 14.276500  2.856610 52.116552
35   -2  1 14.276500  2.856293 54.971503
36   -2  1 14.276500  2.855720 57.826928
37   -2  1 14.276500  2.855385 60.682329
38   -2  1  0.000000  2.855248 63.537681
39   -2  1 14.276500  2.855204 66.392724
40   -2  1 14.276500  2.855174 69.234588
41   -2  1 14.276500  5.710530 14.985003
42   -2  1 14.276500  5.710524 17.855150
43   -2  1 14.276500  5.710506 20.712419
44   -2  1 14.276500  5.710495 23.567806
45   -2  1 14.276500  5.710526 26.423113
46   -2  1 14.276500  5.710652 29.278425
47   -2  1 14.276500  5.710967 32.133843
48    0  1 14.276500  5.711719 34.989623
49    0  1 14.276500  5.713597 37.846196
50    0  1 14.276500  5.713267 40.699486
51    0  1 14.276500  5.713187 43.553465
52    0  1 14.276500  5.713188 46.407536
53    0  1 14.276500  5.713270 49.261514
54    0  1 14.276500  5.713604 52.114805
55   -2  1 14.276500  5.711731 54.971377
56   -2  1 14.276500  5.710984 57.827157
57   -2  1 14.276500  5.710672 60.682575
58   -2  1 14.276500  5.710541 63.537873
59   -2  1 14.276500  5.710489 66.392860
60   -2  1  0.000000  5.710448 69.234682
61   -2  1 14.276500  8.565843 14.984999
62   -2  1 14.276500  8.565839 17.855126
63   -2  1 14.276500  8.565826 20.712368
64   -2  1 14.276500  8.565821 23.567715
65   -2  1 14.276500  8.565843 26.422971
66   -2  1 14.276500  8.565923 29.278230
67   -2  1 14.276500  8.566108 32.133603
68    0  1 14.276500  8.566516 34.989358
69    0  1 14.276500  8.567282 37.845782
70    0  1 14.276500  8.568008 40.700166
71    0  1 14.276500  8.567498 43.553569
72    0  1 14.276500  8.567498 46.407429
73    0  1 14.276500  8.568011 49.260832
74    0  1 14.276500  8.567288 52.115217
75   -2  1 14.276500  8.566526 54.971644
76   -2  1 14.276500  8.566123 57.827404
77   -2  1 14.276500  8.565939 60.682786
78   -2  1 14.276500  8.565856 63.538042
79   -2  1 14.276500  8.565815 66.392989
80   -2  1 14.276500  8.565780 69.234776
81   -2  1 14.276500 11.421178 14.984996
82   -2  1 14.276500 11.421177 17.855110
83   -2  1 14.276500 11.421172 20.712337
84   -2  1 14.276500 11.421171 23.567662
85   -2  1 14.276500 11.421179 26.422892
86   -2  1 14.276500 11.421205 29.278123
87   -2  1 14.276500 11.421264 32.133467
88    0  1 14.276500 11.421389 34.989203
89    0  1 14.276500 11.421633 37.845660
90    0  1 14.276500 11.421752 40.699636
91    0  1 14.276500 11.421078 43.552889
92    0  1 14.276500 11.421079 46.408108
93    0  1 14.276500 11.421753 49.261361
94    0  1 14.276500 11.421635 52.115339
95   -2  1 14.276500 11.421393 54.971800
96   -2  1 14.276500 11.421269 57.827544
97   -2  1 14.276500 11.421211 60.682902
98   -2  1 14.276500 11.421184 63.538137
99   -2  1 14.276500 11.421169 66.393066
100  -2  1  0.000000 11.421155 69.234835
101  -2  1 14.276500 14.276522 14.984996
102  -2  1 14.276500 14.276523 17.855110
103  -2  1 14.276500 14.276528 20.712337
104  -2  1 14.276500 14.276529 23.567662
105  -2  1 14.276500 14.276521 26.422892
106  -2  1 14.276500 14.276495 29.278123
107  -2  1 14.276500 14.276436 32.133467
108   0  1 14.276500 14.276311 34.989203
109   0  1 14.276500 14.276067 37.845660
110   0  1 14.276500 14.275948 40.699636
111   0  1 14.276500 14.276622 43.552889
112   0  1 14.276500 14.276621 46.408108
113   0  1 14.276500 14.275947 49.261361
114   0  1 14.276500 14.276065 52.115339
115  -2  1  0.000000 14.276307 54.971800
116  -2  1 14.276500 14.276431 57.827544
117  -2  1 14.276500 14.276489 60.682902
118  -2  1 14.276500 14.276516 63.538137
119  -2  1 14.276500 14.276531 66.393066
120  -2  1 14.276500 14.276545 69.234835
121  -2  1 14.276500 17.131857 14.984999
122  -2  1 14.276500 17.131861 17.855126
123  -2  1 14.276500 17.131874 20.712368
124  -2  1 14.276500 17.131879 23.567715
125  -2  1 14.276500 17.131857 26.422971
126  -2  1 14.276500 17.131777 29.278230
127  -2  1 14.276500 17.131592 32.133603
128   0  1 14.276500 17.131184 34.989358
129   0  1 14.276500 17.130418 37.845782
130   0  1 14.276500 17.129692 40.700166
131   0  1 14.276500 17.130202 43.553569
132   0  1 14.276500 17.130202 46.407429
133   0  1  0.000000 17.129689 49.260832
134   0  1 14.276500 17.130412 52.115217
135  -2  1 14.276500 17.131174 54.971644
136  -2  1 14.276500 17.131577 57.827404
137  -2  1 14.276500 17.131761 60.682786
138  -2  1 14.276500 17.131844 63.538042
139  -2  1 14.276500 17.131885 66.392989
140  -2  1 14.276500 17.131920 69.234776
141  -2  1 14.276500 19.987170 14.985003
142  -2  1 14.276500 19.987176 17.855150
143  -2  1 14.276500 19.987194 20.712419
144  -2  1 14.276500 19.987205 23.567806
145  -2  1 14.276500 19.987174 26.423113
146  -2  1 14.276500 19.987048 29.278425
147  -2  1 14.276500 19.986733 32.133843
148   0  1 14.276500 19.985981 34.989623
149   0  1 14.276500 19.984103 37.846196
150   0  1 14.276500 19.984433 40.699486
151   0  1 14.276500 19.984513 43.553465
152   0  1 14.276500 19.984512 46.407536
153   0  1  0.000000 19.984430 49.261514
154   0  1 14.276500 19.984096 52.114805
155  -2  1  0.000000 19.985969 54.971377
156  -2  1 14.276500 19.986716 57.827157
157  -2  1  0.000000 19.987028 60.682575
158  -2  1 14.276500 19.987159 63.537873
159  -2  1 14.276500 19.987211 66.392860
160  -2  1  0.000000 19.987252 69.234682
161  -2  1 14.276500 22.842456 14.985006
162  -2  1 14.276500 22.842462 17.855172
163  -2  1 14.276500 22.842478 20.712469
164  -2  1 14.276500 22.842491 23.567903
165  -2  1 14.276500 22.842465 26.423277
166  -2  1 14.276500 22.842332 29.278655
167  -2  1 14.276500 22.841994 32.134065
168   0  1 14.276500 22.841417 34.989496
169   0  1 14.276500 22.841096 37.844449
170   0  1 14.276500 22.841226 40.698795
171   0  1 14.276500 22.841312 43.553246
172   0  1 14.276500 22.841311 46.407757
173   0  1 14.276500 22.841223 49.262207
174   0  1 14.276500 22.841090 52.116552
175  -2  1 14.276500 22.841407 54.971503
176  -2  1 14.276500 22.841980 57.826928
177  -2  1 14.276500 22.842315 60.682329
178  -2  1 14.276500 22.842452 63.537681
179  -2  1 14.276500 22.842496 66.392724
180  -2  1 14.276500 22.842526 69.234588
181  -2  1 14.276500 25.697721 14.985007
182  -2  1 14.276500 25.697724 17.855186
183  -2  1 14.276500 25.697731 20.712499
184  -2  1 14.276500 25.697736 23.567966
185  -2  1 14.276500 25.697726 26.423392
186  -2  1 14.276500 25.697666 29.278815
187  -2  1 14.276500 25.697512 32.134138
188   0  1 14.276500 25.697364 34.989168
189   0  1 14.276500 25.697345 37.843888
190   0  1 14.276500 25.697393 40.698499
191   0  1 14.276500 25.697426 43.553157
192   0  1 14.276500 25.697425 46.407847
193   0  1 14.276500 25.697391 49.262504
194   0  1 14.276500 25.697343 52.117113
195  -2  1 14.276500 25.697360 54.971829
196  -2  1 14.276500 25.697507 57.826850
197  -2  1 14.276500 25.697659 60.682159
198  -2  1 14.276500 25.697721 63.537549
199  -2  1 14.276500 25.697738 66.392636
200  -2  1 14.276500 25.697749 69.234530
201  -2  1  2.855299 28.552979 14.985007
202  -2  1  2.855300 28.552976 17.855185
203  -2  1  2.855302 28.552969 20.712499
204  -2  1  2.855305 28.552964 23.567968
205  -2  1  2.855304 28.552974 26.423402
206  -2  1  2.855286  0.000033 29.278830
207  -2  1  2.855242  0.000183 32.134148
208   0  1  2.855188  0.000325 34.989159
209   0  1  2.855174  0.000329 37.843846
210   0  1  2.855153  0.000263 40.698469
211   0  1  2.855127  0.000222 43.553148
212   0  1  2.855127  0.000222 46.407856
213   0  1  2.855153  0.000264 49.262534
214   0  1  2.855174  0.000332 52.117155
215  -2  1  2.855188  0.000329 54.971838
216  -2  1  2.855242  0.000189 57.826841
217  -2  1  2.855286  0.000040 60.682144
218  -2  1  2.855304 28.552979 63.537540
219  -2  1  2.855305 28.552962 66.392634
220  -2  1  2.855302 28.552951 69.234530
221  -2  1  2.855299  2.855244 14.985005
222  -2  1  2.855300  2.855238 17.855172
223  -2  1  2.855302  2.855222 20.712468
224  -2  1  2.855305  2.855209 23.567905
225  -2  1  2.855304  2.855235 26.423287
226  -2  1  2.855280  2.855365 29.278670
227  -2  1  2.855212  2.855690 32.134069
228   0  1  2.855094  2.856233 34.989455
229   0  1  2.855116  2.856397 37.844237
230   0  1  2.855087  2.856181 40.698690
231   0  1  2.855020  2.856043 43.553215
232   0  1  2.855020  2.856044 46.407788
233   0  1  2.855087  2.856184 49.262312
234   0  1  2.855116  2.856403 52.116764
235  -2  1  2.855094  2.856242 54.971543
236  -2  1  2.855212  2.855704 57.826924
237  -2  1  2.855280  2.855382 60.682314
238  -2  1  2.855304  2.855248 63.537671
239  -2  1  2.855305  2.855204 66.392721
240  -2  1  2.855302  2.855174 69.234588
241  -2  1  2.855299  5.710530 14.985002
242  -2  1  2.855300  5.710524 17.855149
243  -2  1  2.855302  5.710506 20.712418
244  -2  1  2.855306  5.710495 23.567809
245  -2  1  2.855304  5.710525 26.423124
246  -2  1  2.855277  5.710646 29.278442
247  -2  1  2.855202  5.710928 32.133834
248   0  1  2.855117  5.711505 34.989427
249   0  1  2.855340  5.712517 37.845118
250   0  1  2.855766  5.712446 40.699480
251   0  1  2.855554  5.712058 43.553407
252   0  1  2.855554  5.712059 46.407593
253   0  1  2.855766  5.712450 49.261520
254   0  1  2.855340  5.712524 52.115882
255  -2  1  2.855117  5.711517 54.971573
256  -2  1  2.855202  5.710946 57.827166
257  -2  1  2.855277  5.710666 60.682558
258  -2  1  2.855304  5.710541 63.537861
259  -2  1  2.855306  5.710489 66.392856
260  -2  1  2.855303  5.710448 69.234682
261  -2  1  2.855299  8.565843 14.984998
262  -2  1  2.855300  8.565839 17.855125
263  -2  1  2.855303  8.565826 20.712368
264  -2  1  2.855306  8.565821 23.567718
265  -2  1  2.855304  8.565843 26.422983
266  -2  1  2.855273  8.565919 29.278247
267  -2  1  2.855181  8.566082 32.133575
268   0  1  2.855084  8.566411 34.989077
269   0  1  2.855762  8.567276 37.844963
270   0  1  2.861465  8.572737 40.704898
271   0  1  2.858738  8.569802 43.553543
272   0  1  2.858738  8.569803 46.407455
273   0  1  2.861465  8.572740 49.256100
274   0  1  2.855762  8.567281 52.116036
275  -2  1  2.855084  8.566421 54.971925
276  -2  1  2.855181  8.566097 57.827432
277  -2  1  2.855273  8.565935 60.682769
278  -2  1  2.855304  8.565856 63.538029
279  -2  1  2.855306  8.565816 66.392986
280  -2  1  2.855303  8.565780 69.234776
281  -2  1  2.855299 11.421178 14.984995
282  -2  1  2.855300 11.421177 17.855109
283  -2  1  2.855303 11.421172 20.712336
284  -2  1  2.855307 11.421171 23.567665
285  -2  1  2.855304 11.421179 26.422905
286  -2  1  2.855268 11.421204 29.278140
287  -2  1  2.855158 11.421256 32.133432
288   0  1  2.855016 11.421358 34.988871
289   0  1  2.855549 11.421576 37.844533
290   0  1  2.858742 11.421728 40.701946
291   0  1  2.855475 11.419705 43.551516
292   0  1  2.855475 11.419705 46.409480
293   0  1  2.858742 11.421729 49.259051
294   0  1  2.855549 11.421578 52.116466
295  -2  1  2.855016 11.421362 54.972133
296  -2  1  2.855158 11.421261 57.827580
297  -2  1  2.855268 11.421210 60.682885
298  -2  1  2.855304 11.421184 63.538124
299  -2  1  2.855307 11.421169 66.393062
300  -2  1  2.855303 11.421155 69.234835
301  -2  1  2.855299 14.276522 14.984995
302  -2  1  2.855300 14.276523 17.855109
303  -2  1  2.855303 14.276528 20.712336
304  -2  1  2.855307 14.276529 23.567665
305  -2  1  2.855304 14.276521 26.422905
306  -2  1  2.855268 14.276496 29.278140
307  -2  1  2.855158 14.276444 32.133432
308   0  1  2.855016 14.276342 34.988871
309   0  1  2.855549 14.276124 37.844533
310   0  1  2.858742 14.275972 40.701946
311   0  1  2.855475 14.277995 43.551516
312   0  1  2.855475 14.277995 46.409480
313   0  1  2.858742 14.275971 49.259051
314   0  1  2.855549 14.276122 52.116466
315  -2  1  2.855016 14.276338 54.972133
316  -2  1  2.855158 14.276439 57.827580
317  -2  1  2.855268 14.276490 60.682885
318  -2  1  2.855304 14.276516 63.538124
319  -2  1  2.855307 14.276531 66.393062
320  -2  1  2.855303 14.276545 69.234835
321  -2  1  2.855299 17.131857 14.984998
322  -2  1  2.855300 17.131861 17.855125
323  -2  1  2.855303 17.131874 20.712368
324  -2  1  2.855306 17.131879 23.567718
325  -2  1  2.855304 17.131857 26.422983
326  -2  1  2.855273 17.131781 29.278247
327  -2  1  2.855181 17.131618 32.133575
328   0  1  2.855084 17.131289 34.989077
329   0  1  2.855762 17.130424 37.844963
330   0  1  2.861465 17.124963 40.704898
331   0  1  2.858738 17.127898 43.553543
332   0  1  2.858738 17.127897 46.407455
333   0  1  2.861465 17.124960 49.256100
334   0  1  2.855762 17.130419 52.116036
335  -2  1  2.855084 17.131279 54.971925
336  -2  1  2.855181 17.131603 57.827432
337  -2  1  2.855273 17.131765 60.682769
338  -2  1  2.855304 17.131844 63.538029
339  -2  1  2.855306 17.131884 66.392986
340  -2  1  2.855303 17.131920 69.234776
341  -2  1  2.855299 19.987170 14.985002
342  -2  1  2.855300 19.987176 17.855149
343  -2  1  2.855302 19.987194 20.712418
344  -2  1  2.855306 19.987205 23.567809
345  -2  1  2.855304 19.987175 26.423124
346  -2  1  2.855277 19.987054 29.278442
347  -2  1  2.855202 19.986772 32.133834
348   0  1  2.855117 19.986195 34.989427
349   0  1  2.855340 19.985183 37.845118
350   0  1  2.855766 19.985254 40.699480
351   0  1  2.855554 19.985642 43.553407
352   0  1  2.855554 19.985641 46.407593
353   0  1  2.855766 19.985250 49.261520
354   0  1  2.855340 19.985176 52.115882
355  -2  1  2.855117 19.986183 54.971573
356  -2  1  2.855202 19.986754 57.827166
357  -2  1  2.855277 19.987034 60.682558
358  -2  1  2.855304 19.987159 63.537861
359  -2  1  2.855306 19.987211 66.392856
360  -2  1  2.855303 19.987252 69.234682
361  -2  1  2.855299 22.842456 14.985005
362  -2  1  2.855300 22.842462 17.855172
363  -2  1  2.855302 22.842478 20.712468
364  -2  1  2.855305 22.842491 23.567905
365  -2  1  2.855304 22.842465 26.423287
366  -2  1  2.855280 22.842335 29.278670
367  -2  1  2.855212 22.842010 32.134069
368   0  1  2.855094 22.841467 34.989455
369   0  1  2.855116 22.841303 37.844237
370   0  1  2.855087 22.841519 40.698690
371   0  1  2.855020 22.841657 43.553215
372   0  1  2.855020 22.841656 46.407788
373   0  1  2.855087 22.841516 49.262312
374   0  1  2.855116 22.841297 52.116764
375  -2  1  2.855094 22.841458 54.971543
376  -2  1  2.855212 22.841996 57.826924
377  -2  1  2.855280 22.842318 60.682314
378  -2  1  2.855304 22.842452 63.537671
379  -2  1  2.855305 22.842496 66.392721
380  -2  1  2.855302 22.842526 69.234588
381  -2  1  2.855299 25.697721 14.985007
382  -2  1  2.855300 25.697724 17.855185
383  -2  1  2.855302 25.697731 20.712499
384  -2  1  2.855305 25.697736 23.567968
385  -2  1  2.855304 25.697726 26.423402
386  -2  1  2.855286 25.697667 29.278830
387  -2  1  2.855242 25.697517 32.134148
388   0  1  2.855188 25.697375 34.989159
389   0  1  2.855174 25.697371 37.843846
390   0  1  2.855153 25.697437 40.698469
391   0  1  2.855127 25.697478 43.553148
392   0  1  2.855127 25.697478 46.407856
393   0  1  2.855153 25.697436 49.262534
394   0  1  2.855174 25.697368 52.117155
395  -2  1  2.855188 25.697371 54.971838
396  -2  1  2.855242 25.697511 57.826841
397  -2  1  2.855286 25.697660 60.682144
398  -2  1  2.855304 25.697721 63.537540
399  -2  1  2.855305 25.697738 66.392634
400  -2  1  2.855302 25.697749 69.234530
401  -2  1  5.710600 28.552979 14.985006
402  -2  1  5.710600 28.552976 17.855184
403  -2  1  5.710601 28.552969 20.712499
404  -2  1  5.710603 28.552964 23.567972
405  -2  1  5.710603 28.552974 26.423417
406  -2  1  5.710591  0.000031 29.278858
407  -2  1  5.710556  0.000172 32.134162
408   0  1  5.710532  0.000285 34.989117
409   0  1  5.710521  0.000271 37.843789
410   0  1  5.710508  0.000185 40.698421
411   0  1  5.710493  0.000120 43.553129
412   0  1  5.710493  0.000120 46.407875
413   0  1  5.710508  0.000186 49.262583
414   0  1  5.710521  0.000273 52.117212
415  -2  1  5.710532  0.000289 54.971880
416  -2  1  5.710556  0.000177 57.826827
417  -2  1  5.710591  0.000038 60.682117
418  -2  1  5.710603 28.552979 63.537524
419  -2  1  5.710603 28.552962 66.392630
420  -2  1  5.710601 28.552951 69.234531
421  -2  1  5.710600  2.855244 14.985004
422  -2  1  5.710600  2.855238 17.855170
423  -2  1  5.710601  2.855222 20.712468
424  -2  1  5.710603  2.855209 23.567910
425  -2  1  5.710603  2.855235 26.423303
426  -2  1  5.710588  2.855358 29.278695
427  -2  1  5.710547  2.855641 32.134054
428   0  1  5.710518  2.856053 34.989291
429   0  1  5.710526  2.856139 37.844059
430   0  1  5.710516  2.855823 40.698536
431   0  1  5.710467  2.855523 43.553138
432   0  1  5.710467  2.855523 46.407864
433   0  1  5.710516  2.855826 49.262467
434   0  1  5.710526  2.856145 52.116942
435  -2  1  5.710518  2.856063 54.971707
436  -2  1  5.710547  2.855655 57.826939
437  -2  1  5.710588  2.855374 60.682289
438  -2  1  5.710602  2.855247 63.537655
439  -2  1  5.710603  2.855204 66.392716
440  -2  1  5.710602  2.855174 69.234588
441  -2  1  5.710600  5.710530 14.985001
442  -2  1  5.710600  5.710524 17.855148
443  -2  1  5.710601  5.710506 20.712418
444  -2  1  5.710604  5.710495 23.567814
445  -2  1  5.710603  5.710525 26.423142
446  -2  1  5.710585  5.710637 29.278469
447  -2  1  5.710538  5.710876 32.133803
448   0  1  5.710527  5.711323 34.989186
449   0  1  5.710639  5.712170 37.844777
450   0  1  5.710722  5.711799 40.699068
451   0  1  5.710401  5.710621 43.553022
452   0  1  5.710401  5.710622 46.407978
453   0  1  5.710722  5.711802 49.261932
454   0  1  5.710639  5.712177 52.116224
455  -2  1  5.710527  5.711335 54.971814
456  -2  1  5.710538  5.710893 57.827198
457  -2  1  5.710585  5.710658 60.682531
458  -2  1  5.710603  5.710540 63.537843
459  -2  1  5.710604  5.710489 66.392851
460  -2  1  5.710602  5.710448 69.234682
461  -2  1  5.710600  8.565843 14.984997
462  -2  1  5.710600  8.565839 17.855123
463  -2  1  5.710602  8.565826 20.712367
464  -2  1  5.710604  8.565821 23.567724
465  -2  1  5.710603  8.565843 26.423004
466  -2  1  5.710583  8.565912 29.278275
467  -2  1  5.710526  8.566041 32.133526
468   0  1  5.710515  8.566257 34.988739
469   0  1  5.710720  8.566863 37.844321
470   0  1  5.710949  8.569722 40.701883
471   0  1  5.709015  8.566126 43.551525
472   0  1  5.709015  8.566127 46.409473
473   0  1  5.710949  8.569725 49.259115
474   0  1  5.710720  8.566868 52.116678
475  -2  1  5.710515  8.566266 54.972263
476  -2  1  5.710526  8.566055 57.827482
477  -2  1  5.710583  8.565929 60.682740
478  -2  1  5.710603  8.565855 63.538009
479  -2  1  5.710604  8.565816 66.392980
480  -2  1  5.710602  8.565780 69.234777
481  -2  1  5.710600 11.421178 14.984994
482  -2  1  5.710600 11.421177 17.855108
483  -2  1  5.710602 11.421172 20.712336
484  -2  1  5.710604 11.421171 23.567671
485  -2  1  5.710603 11.421179 26.422927
486  -2  1  5.710580 11.421202 29.278168
487  -2  1  5.710513 11.421240 32.133358
488   0  1  5.710465 11.421282 34.988371
489   0  1  5.710399 11.421191 37.843104
490   0  1  5.709020 11.419713 40.698274
491   0  1  5.751811 11.462425 43.594261
492   0  1  5.751811 11.462425 46.366736
493   0  1  5.709020 11.419714 49.262723
494   0  1  5.710399 11.421193 52.117895
495  -2  1  5.710465 11.421285 54.972633
496  -2  1  5.710513 11.421246 57.827654
497  -2  1  5.710580 11.421208 60.682857
498  -2  1  5.710602 11.421184 63.538102
499  -2  1  5.710604 11.421169 66.393056
500  -2  1  5.710602 11.421155 69.234835
501  -2  1  5.710600 14.276522 14.984994
502  -2  1  5.710600 14.276523 17.855108
503  -2  1  5.710602 14.276528 20.712336
504  -2  1  5.710604 14.276529 23.567671
505  -2  1  5.710603 14.276521 26.422927
506  -2  1  5.710580 14.276498 29.278168
507  -2  1  5.710513 14.276460 32.133358
508   0  1  5.710465 14.276418 34.988371
509   0  1  5.710399 14.276509 37.843104
510   0  1  5.709020 14.277987 40.698274
511   0  1  5.751811 14.235275 43.594261
512   0  1  5.751811 14.235275 46.366736
513   0  1  5.709020 14.277986 49.262723
514   0  1  5.710399 14.276507 52.117895
515  -2  1  5.710465 14.276415 54.972633
516  -2  1  5.710513 14.276454 57.827654
517  -2  1  5.710580 14.276492 60.682857
518  -2  1  5.710602 14.276516 63.538102
519  -2  1  5.710604 14.276531 66.393056
520  -2  1  5.710602 14.276545 69.234835
521  -2  1  5.710600 17.131857 14.984997
522  -2  1  5.710600 17.131861 17.855123
523  -2  1  5.710602 17.131874 20.712367
524  -2  1  5.710604 17.131879 23.567724
525  -2  1  5.710603 17.131857 26.423004
526  -2  1  5.710583 17.131788 29.278275
527  -2  1  5.710526 17.131659 32.133526
528   0  1  5.710515 17.131443 34.988739
529   0  1  5.710720 17.130837 37.844321
530   0  1  5.710949 17.127978 40.701883
531   0  1  5.709015 17.131574 43.551525
532   0  1  5.709015 17.131573 46.409473
533   0  1  5.710949 17.127975 49.259115
534   0  1  5.710720 17.130832 52.116678
535  -2  1  5.710515 17.131434 54.972263
536  -2  1  5.710526 17.131645 57.827482
537  -2  1  5.710583 17.131771 60.682740
538  -2  1  5.710603 17.131845 63.538009
539  -2  1  5.710604 17.131884 66.392980
540  -2  1  5.710602 17.131920 69.234777
541  -2  1  5.710600 19.987170 14.985001
542  -2  1  5.710600 19.987176 17.855148
543  -2  1  5.710601 19.987194 20.712418
544  -2  1  5.710604 19.987205 23.567814
545  -2  1  5.710603 19.987175 26.423142
546  -2  1  5.710585 19.987063 29.278469
547  -2  1  5.710538 19.986824 32.133803
548   0  1  5.710527 19.986377 34.989186
549   0  1  5.710639 19.985530 37.844777
550   0  1  5.710722 19.985901 40.699068
551   0  1  5.710401 19.987079 43.553022
552   0  1  5.710401 19.987078 46.407978
553   0  1  5.710722 19.985898 49.261932
554   0  1  5.710639 19.985523 52.116224
555  -2  1  5.710527 19.986365 54.971814
556  -2  1  5.710538 19.986807 57.827198
557  -2  1  5.710585 19.987042 60.682531
558  -2  1  5.710603 19.987160 63.537843
559  -2  1  5.710604 19.987211 66.392851
560  -2  1  5.710602 19.987252 69.234682
561  -2  1  5.710600 22.842456 14.985004
562  -2  1  5.710600 22.842462 17.855170
563  -2  1  5.710601 22.842478 20.712468
564  -2  1  5.710603 22.842491 23.567910
565  -2  1  5.710603 22.842465 26.423303
566  -2  1  5.710588 22.842342 29.278695
567  -2  1  5.710547 22.842059 32.134054
568   0  1  5.710518 22.841647 34.989291
569   0  1  5.710526 22.841561 37.844059
570   0  1  5.710516 22.841877 40.698536
571   0  1  5.710467 22.842177 43.553138
572   0  1  5.710467 22.842177 46.407864
573   0  1  5.710516 22.841874 49.262467
574   0  1  5.710526 22.841555 52.116942
575  -2  1  5.710518 22.841637 54.971707
576  -2  1  5.710547 22.842045 57.826939
577  -2  1  5.710588 22.842326 60.682289
578  -2  1  5.710602 22.842453 63.537655
579  -2  1  5.710603 22.842496 66.392716
580  -2  1  5.710602 22.842526 69.234588
581  -2  1  5.710600 25.697721 14.985006
582  -2  1  5.710600 25.697724 17.855184
583  -2  1  5.710601 25.697731 20.712499
584  -2  1  5.710603 25.697736 23.567972
585  -2  1  5.710603 25.697726 26.423417
586  -2  1  5.710591 25.697669 29.278858
587  -2  1  5.710556 25.697528 32.134162
588   0  1  5.710532 25.697415 34.989117
589   0  1  5.710521 25.697429 37.843789
590   0  1  5.710508 25.697515 40.698421
591   0  1  5.710493 25.697580 43.553129
592   0  1  5.710493 25.697580 46.407875
593   0  1  5.710508 25.697514 49.262583
594   0  1  5.710521 25.697427 52.117212
595  -2  1  5.710532 25.697411 54.971880
596  -2  1  5.710556 25.697523 57.826827
597  -2  1  5.710591 25.697662 60.682117
598  -2  1  5.710603 25.697721 63.537524
599  -2  1  5.710603 25.697738 66.392630
600  -2  1  5.710601 25.697749 69.234531
601  -2  1  8.565900 28.552979 14.985006
602  -2  1  8.565900 28.552976 17.855184
603  -2  1  8.565899 28.552969 20.712499
604  -2  1  8.565897 28.552964 23.567972
605  -2  1  8.565897 28.552974 26.423417
606  -2  1  8.565909  0.000031 29.278858
607  -2  1  8.565944  0.000172 32.134162
608   0  1  8.565968  0.000285 34.989117
609   0  1  8.565979  0.000271 37.843789
610   0  1  8.565992  0.000185 40.698421
611   0  1  8.566007  0.000120 43.553129
612   0  1  8.566007  0.000120 46.407875
613   0  1  8.565992  0.000186 49.262583
614   0  1  8.565979  0.000273 52.117212
615  -2  1  8.565968  0.000289 54.971880
616  -2  1  8.565944  0.000177 57.826827
617  -2  1  8.565909  0.000038 60.682117
618  -2  1  8.565897 28.552979 63.537524
619  -2  1  8.565897 28.552962 66.392630
620  -2  1  8.565899 28.552951 69.234531
621  -2  1  8.565900  2.855244 14.985004
622  -2  1  8.565900  2.855238 17.855170
623  -2  1  8.565899  2.855222 20.712468
624  -2  1  8.565897  2.855209 23.567910
625  -2  1  8.565897  2.855235 26.423303
626  -2  1  8.565912  2.855358 29.278695
627  -2  1  8.565953  2.855641 32.134054
628   0  1  8.565982  2.856053 34.989291
629   0  1  8.565974  2.856139 37.844059
630   0  1  8.565984  2.855823 40.698536
631   0  1  8.566033  2.855523 43.553138
632   0  1  8.566033  2.855523 46.407864
633   0  1  8.565984  2.855826 49.262467
634   0  1  8.565974  2.856145 52.116942
635  -2  1  8.565982  2.856063 54.971707
636  -2  1  8.565953  2.855655 57.826939
637  -2  1  8.565912  2.855374 60.682289
638  -2  1  8.565898  2.855247 63.537655
639  -2  1  8.565897  2.855204 66.392716
640  -2  1  8.565898  2.855174 69.234588
641  -2  1  8.565900  5.710530 14.985001
642  -2  1  8.565900  5.710524 17.855148
643  -2  1  8.565899  5.710506 20.712418
644  -2  1  8.565896  5.710495 23.567814
645  -2  1  8.565897  5.710525 26.423142
646  -2  1  8.565915  5.710637 29.278469
647  -2  1  8.565962  5.710876 32.133803
648   0  1  8.565973  5.711323 34.989186
649   0  1  8.565861  5.712170 37.844777
650   0  1  8.565778  5.711799 40.699068
651   0  1  8.566099  5.710621 43.553022
652   0  1  8.566099  5.710622 46.407978
653   0  1  8.565778  5.711802 49.261932
654   0  1  8.565861  5.712177 52.116224
655  -2  1  8.565973  5.711335 54.971814
656  -2  1  8.565962  5.710893 57.827198
657  -2  1  8.565915  5.710658 60.682531
658  -2  1  8.565897  5.710540 63.537843
659  -2  1  8.565896  5.710489 66.392851
660  -2  1  8.565898  5.710448 69.234682
661  -2  1  8.565900  8.565843 14.984997
662  -2  1  8.565900  8.565839 17.855123
663  -2  1  8.565898  8.565826 20.712367
664  -2  1  8.565896  8.565821 23.567724
665  -2  1  8.565897  8.565843 26.423004
666  -2  1  8.565917  8.565912 29.278275
667  -2  1  8.565974  8.566041 32.133526
668   0  1  8.565985  8.566257 34.988739
669   0  1  8.565780  8.566863 37.844321
670   0  1  8.565551  8.569722 40.701883
671   0  1  8.567485  8.566126 43.551525
672   0  1  8.567485  8.566127 46.409473
673   0  1  8.565551  8.569725 49.259115
674   0  1  8.565780  8.566868 52.116678
675  -2  1  8.565985  8.566266 54.972263
676  -2  1  8.565974  8.566055 57.827482
677  -2  1  8.565917  8.565929 60.682740
678  -2  1  8.565897  8.565855 63.538009
679  -2  1  8.565896  8.565816 66.392980
680  -2  1  8.565898  8.565780 69.234777
681  -2  1  8.565900 11.421178 14.984994
682  -2  1  8.565900 11.421177 17.855108
683  -2  1  8.565898 11.421172 20.712336
684  -2  1  8.565896 11.421171 23.567671
685  -2  1  8.565897 11.421179 26.422927
686  -2  1  8.565920 11.421202 29.278168
687  -2  1  8.565987 11.421240 32.133358
688   0  1  8.566035 11.421282 34.988371
689   0  1  8.566101 11.421191 37.843104
690   0  1  8.567480 11.419713 40.698274
691   0  1  8.524689 11.462425 43.594261
692   0  1  8.524689 11.462425 46.366736
693   0  1  8.567480 11.419714 49.262723
694   0  1  8.566101 11.421193 52.117895
695  -2  1  8.566035 11.421285 54.972633
696  -2  1  8.565987 11.421246 57.827654
697  -2  1  8.565920 11.421208 60.682857
698  -2  1  8.565898 11.421184 63.538102
699  -2  1  8.565896 11.421169 66.393056
700  -2  1  8.565898 11.421155 69.234835
701  -2  1  8.565900 14.276522 14.984994
702  -2  1  8.565900 14.276523 17.855108
703  -2  1  8.565898 14.276528 20.712336
704  -2  1  8.565896 14.276529 23.567671
705  -2  1  8.565897 14.276521 26.422927
706  -2  1  8.565920 14.276498 29.278168
707  -2  1  8.565987 14.276460 32.133358
708   0  1  8.566035 14.276418 34.988371
709   0  1  8.566101 14.276509 37.843104
710   0  1  8.567480 14.277987 40.698274
711   0  1  8.524689 14.235275 43.594261
712   0  1  8.524689 14.235275 46.366736
713   0  1  8.567480 14.277986 49.262723
714   0  1  8.566101 14.276507 52.117895
715  -2  1  8.566035 14.276415 54.972633
716  -2  1  8.565987 14.276454 57.827654
717  -2  1  8.565920 14.276492 60.682857
718  -2  1  8.565898 14.276516 63.538102
719  -2  1  8.565896 14.276531 66.393056
720  -2  1  8.565898 14.276545 69.234835
721  -2  1  8.565900 17.131857 14.984997
722  -2  1  8.565900 17.131861 17.855123
723  -2  1  8.565898 17.131874 20.712367
724  -2  1  8.565896 17.131879 23.567724
725  -2  1  8.565897 17.131857 26.423004
726  -2  1  8.565917 17.131788 29.278275