ITEM: TIMESTEP
100
ITEM: NUMBER OF ATOMS
50
ITEM: BOX BOUNDS xy xz yz pp pp pp
0.0000000000000000e+00 1.4276500000000000e+01 0.0000000000000000e+00
0.0000000000000000e+00 2.8567276500000002e+01 0.0000000000000000e+00
0.0000000000000000e+00 8.7105999999999995e+01 1.4276499999999999e-02
ITEM: ATOMS id x y z c_sz2[1] c_sz2[2] c_sz2[3] c_sz2[4] c_sz2[5] c_sz2[6]
17 14.2817 28.5629 60.6755 -4959.28 162085 21871 -112210 -81130.8 -92032.5
37 14.2911 2.87796 60.7054 180245 121477 154480 -29466.7 3432.79 34446.1
57 14.2881 5.71045 60.6838 60520.3 29818.3 60553.8 -25647.9 -73779.8 102549
77 14.2761 8.59475 60.6733 -101797 -106553 -171054 -132794 -122525 4174.72
97 14.2741 11.4359 60.6578 -48919.5 -109848 -37908.5 19718.8 8307.93 110724
117 14.2843 14.2626 60.6643 71747.6 -150901 -14954.7 -63793.9 56518.4 -83505.6
137 14.2988 17.1164 60.6771 13031.5 -111582 10154.7 111573 -50787.2 33026.4
157 14.2524 19.9724 60.673 -66645.6 47379.8 -6779.09 -46249.5 -73826.7 -50280.5
177 14.2487 22.8639 60.7059 -20092.2 80411.4 32541.2 40758.7 215924 -37536
197 14.2982 25.6849 60.6906 -79084 -83218.8 -64879.2 144798 -87669.1 112779
217 2.85573 28.5418 60.6747 -46117 70378.9 51112.8 3790.16 48097.3 64923.2
237 2.86481 2.88155 60.6664 58203.5 55339.3 5228.42 32592 -13672.2 7714.68
257 2.87623 5.70482 60.6802 -44754.9 -64660.1 11615.4 41234.1 77711.3 91862.1
277 2.85116 8.55207 60.6707 -7933.29 -116872 -747.557 90392.4 82964.7 21907.6
297 2.8458 11.4074 60.6721 98643 24971.2 15927.8 -132442 -3879.58 2002.88
317 2.85926 14.28 60.6995 -56357.4 69840.1 -106640 173398 62088.4 86987.6
337 2.86485 17.1653 60.682 34371.3 -7503.03 48352.1 -44238.1 83494 -120672
357 2.8398 20.0039 60.6984 219676 141950 161429 36708.9 83246.1 -34231.2
377 2.8471 22.8506 60.704 113115 -2977 -37272.9 -16354.2 57507.6 -7679.17
397 2.8404 25.6842 60.6744 -46481.4 -93726.3 36882.6 15754.9 122729 1721.83
417 5.68586 28.5396 60.6706 -244876 -110296 -86018.5 -96422 -58776.7 79298.4
437 5.72898 2.8877 60.7094 -40535.3 49273 -63718.4 -12607.5 -144366 -216470
457 5.69601 5.73763 60.6918 -51885.6 -119912 24042 -61675.6 35508.6 -8234.96
477 5.71385 8.55062 60.6856 -44596 -25280.5 -32159.2 74597.6 31052.3 14687.1
497 5.71965 11.4582 60.7023 117218 162660 77702.1 -43999.1 -40145 -12424.2
517 5.7114 14.3068 60.6755 -60171.8 -136561 -85567.8 -72785.9 100512 -24282.8
537 5.73329 17.1483 60.6952 -74419.2 -30638.9 27986.9 9099.94 -83806.2 -23941.3
557 5.70311 19.9809 60.7041 36003.3 28105 -87578 -106126 99946.3 95086.7
577 5.71209 22.8718 60.6767 -85069.2 -66253 -62032.3 -5447.01 -21399.3 47682.4
597 5.72118 25.7067 60.6812 -55126.9 -140892 -92169.7 -35740.9 -183688 -33118.5
617 8.54247 28.5728 60.6936 -23448.8 -167420 -113995 -11446.4 -30045.9 15432.2
637 8.56561 2.84694 60.6747 -177713 -224382 -152421 14104.8 109560 -105396
657 8.5672 5.69794 60.6696 52142.3 15428.1 -795.039 -24418.2 -33530 -5663.83
677 8.55027 8.58945 60.6802 -120438 -80830.8 -76858.7 -8354.76 -50682.1 136068
697 8.54973 11.418 60.6769 -66832.3 -215598 -131253 88926.3 31976.7 -63027
717 8.57028 14.2641 60.6937 -132171 -147064 -129631 669.769 -114537 -69253.8
737 8.55038 17.1214 60.7025 -91037.8 63497.6 33876 -97540.2 89294.2 128659
757 8.55649 20.0014 60.6595 -38192 65353 -149308 -14077.8 24996.4 -10725.5
777 8.53964 22.873 60.6744 -105864 -11221.6 34382.2 179102 43681.2 86004.5
797 8.55098 25.718 60.6712 4188.25 -13448.7 17550.6 130733 10953.5 65773.4
817 11.4427 28.5613 60.691 68602.8 157119 72134.8 6150.57 85823.9 15247.9
837 11.4083 2.89063 60.6594 -73614.2 -160158 -170616 89617.3 -139107 200175
857 11.4258 5.73152 60.7047 -22549.7 -94371.2 -157517 27157.7 -22181.7 -149820
877 11.4166 8.59299 60.6846 22467.5 -96756.7 40290 84146 97081.4 22599.5
897 11.4388 11.4115 60.7046 53117.7 -74805.7 65425 -40689.8 -76289.9 51948.9
917 11.3997 14.2701 60.7037 6998.93 126131 -84628.7 -58615.3 85940.6 60046
937 11.3941 17.1637 60.7087 -57069.8 -36431.4 -216957 122879 175490 -103038
957 11.4251 20.0065 60.6665 -59466.4 -28688.3 -72242 -45183.7 -7869.33 67218.5
977 11.4106 22.8695 60.6632 37154 -62606.9 -30858.2 15172.3 -86598.3 75758.5
997 11.422 25.6926 60.6916 111311 -53122.9 -26900 -56383.8 23300.5 -12456.2
ITEM: TIMESTEP
200
ITEM: NUMBER OF ATOMS
50
ITEM: BOX BOUNDS xy xz yz pp pp pp
0.0000000000000000e+00 1.4276500000000000e+01 0.0000000000000000e+00
0.0000000000000000e+00 2.8567276500000002e+01 0.0000000000000000e+00
0.0000000000000000e+00 8.7105999999999995e+01 1.4276499999999999e-02
ITEM: ATOMS id x y z c_sz2[1] c_sz2[2] c_sz2[3] c_sz2[4] c_sz2[5] c_sz2[6]
17 -4.21194e-06 0.00974596 60.6821 -8917.48 -1084.64 -3112.73 -4879.58 6488.82 7719.71
37 -2.12699e-06 2.86515 60.6823 -7901.28 -3359.7 -7767.89 -5626.81 -7875.54 -1578.87
57 -3.67303e-05 5.72055 60.6826 -20604.9 -10619.3 -999.181 14285 2236.69 1787.28
77 -6.67394e-05 8.5759 60.6828 -4037.66 -21539.4 -1013.27 -8374.25 782.899 2653.53
97 14.2764 11.4312 60.6829 -1192.61 -982.389 -38755.9 -500.433 -3120.45 -1634.95
117 -0.000106065 14.2865 60.6829 -1535.43 -35147.1 -20692.6 5616.84 5391.46 -24919.8
137 -0.000119902 17.1417 60.6827 -33740.1 -53859.6 -1312.96 42317.9 8886.12 -7980.92
157 14.2764 19.9969 60.6825 -25213.1 -31610.2 -4266.9 -28330.6 -11402.2 -10721.2
177 14.2764 22.8521 60.6822 -64691.4 -2407.73 -11656.7 14811.6 30831.7 -2928.57
197 -2.86828e-05 25.7074 60.6821 -30875.3 -37613.8 -1359.57 35748.1 -10447.9 16220.9
217 2.85529 28.5628 60.6821 -285.856 -36239.2 -4461.78 -7363.52 -2910.72 -10520.5
237 2.85528 2.86517 60.6823 -10893.1 -13351.7 -19281.8 -12711.7 14995.2 20403.8
257 2.85525 5.72054 60.6826 -14455.7 -29438.1 -2276.24 20285.6 5637.32 -4531.31
277 2.85521 8.57588 60.6828 -6296.37 -53499.3 -8272.92 -17961.7 -5976.39 -17848.6
297 2.85518 11.4312 60.6828 -4485 -44164.6 -11276.1 -13637.1 -5649.72 -19970
317 2.85515 14.2865 60.6828 -293.194 -5351.79 -22931.4 12.4594 924.051 12375.2
337 2.85517 17.1417 60.6827 -3147.94 -55189.1 84.3435 -13147.8 2533.71 7919.83
357 2.85519 19.9969 60.6824 -23377.9 -5306.84 1005.2 11697.4 4869.71 884.797
377 2.85523 22.8521 60.6822 -7712.27 755.821 -15307.9 -1271.04 13245.9 5943.3
397 2.85527 25.7074 60.682 -27240.8 -36410.4 -3431.9 -32912.5 -12648.6 -10364.8
417 5.71058 28.5628 60.6821 -30857.9 -43096.3 -537.167 -37940.6 -8143.41 -5504.45
437 5.71058 2.86517 60.6823 -27252.8 -44893.9 -28826 -35806.2 -28346.1 -32896
457 5.71055 5.72055 60.6825 -10707 -13006 -2609.7 11683.2 5495.94 -2533.04
477 5.71051 8.57587 60.6827 -172.439 -21133.1 -1054.6 -1238.59 949.241 6171.58
497 5.71047 11.4312 60.6828 -3253.02 -26501.3 -8365.61 -9285.42 -3804.63 -12400.8
517 5.71046 14.2865 60.6828 -1632.86 -37942.2 -794.586 7779.43 233.46 7002.01
537 5.71047 17.1417 60.6827 -32992.4 -3867.28 -2712.25 -11051.8 -9383.21 -1475.58
557 5.71049 19.9969 60.6824 -8955.26 -12702.7 -22539.9 -11069.8 16215.8 20440.5
577 5.71052 22.8521 60.6822 1418.13 -10449.6 2258.73 -234.975 683.266 4630.49
597 5.71056 25.7074 60.682 -22883.5 1653.85 2027.59 -1851.9 -2795.43 4108.35
617 8.56588 0.00975589 60.6821 -14547.1 -1012.33 -15305.1 6366.3 16439.4 -2187.22
637 8.56589 2.86517 60.6823 -3413.49 -6614.42 163.518 -5253.63 197.239 3865.38
657 8.56588 5.72053 60.6826 -552.562 -31300.9 -9592.01 3264.76 2142.55 -13582.6
677 8.56583 8.57587 60.6828 -8688.7 -364.928 -1435.64 251.331 2835.16 2458.2
697 8.56579 11.4312 60.6829 -14939.8 -5492.77 -904.903 -8612.24 1772.74 2436.79
717 8.56579 14.2865 60.6828 -6738.57 -14837 -16098 9769.15 -8864.63 16830.6
737 8.56578 17.1417 60.6827 -17243.5 -33711.6 -9684.07 -23995.6 14326.3 20307.5
757 8.56581 19.9969 60.6824 -11867.9 -1491.27 -14788.8 4895.32 -13398.8 7891.63
777 8.56586 22.8521 60.6822 -54741.2 -17055.1 -3466.08 31918.4 -17413.6 13774.1
797 8.56587 25.7074 60.682 -11854.8 -3913.05 -6864.73 8699.2 -10813.5 11579
817 11.4212 28.5627 60.6821 -6188.23 1298.94 -750.13 350.376 -3495.93 4654.54
837 11.4212 2.86514 60.6823 -444.341 -14828.8 -11782.2 2634.73 -2244.37 17306.1
857 11.4212 5.72054 60.6826 -2414.56 -25897.2 -35486.5 -6851.64 -7598.41 -26518.3
877 11.4212 8.57589 60.6828 -8009.44 -12391.9 -1265.45 9180.83 621.65 2295.98
897 11.4211 11.4312 60.6829 -17573.4 -19622.1 -13519.8 17774.1 -13611.2 17062
917 11.4211 14.2865 60.6829 -25489.8 -14241.2 -20367.7 -18252.6 23138.1 17878.5
937 11.4211 17.1417 60.6827 -45285.9 -21529.5 -48890.2 30820 48123.1 -30324.3
957 11.4211 19.9969 60.6825 -65.1383 -4923.51 -9609.91 -1481.91 3135.2 9944.7
977 11.4212 22.8521 60.6822 -4468.2 -13455.6 -21563 9048.83 -11158.5 22212.7
997 11.4212 25.7074 60.6821 1538.32 -4754.36 -2571.79 65.4492 201.475 9948.46
ITEM: TIMESTEP
251
ITEM: NUMBER OF ATOMS
50
ITEM: BOX BOUNDS xy xz yz pp pp pp
0.0000000000000000e+00 1.4276500000000000e+01 0.0000000000000000e+00
0.0000000000000000e+00 2.8567276500000002e+01 0.0000000000000000e+00
0.0000000000000000e+00 8.7105999999999995e+01 1.4276499999999999e-02
ITEM: ATOMS id x y z c_sz2[1] c_sz2[2] c_sz2[3] c_sz2[4] c_sz2[5] c_sz2[6]
17 -6.07023e-05 0.00970202 60.6821 -8935.91 -1076.94 -2995.38 -4882.71 7064.81 8096.34
37 -6.30954e-05 2.86511 60.6823 -7864.44 -3305.73 -7635.05 -5611.12 -7321.09 -1203.41
57 -9.28423e-05 5.7205 60.6826 -20439.5 -10450.3 -759.415 14324.2 2722.47 2172.48
77 -0.000124449 8.57585 60.6828 -3846.7 -21374.1 -742.413 -8389.91 1305.04 3102.09
97 14.2763 11.4312 60.6829 -1021.2 -821.45 -38508.7 -494.492 -2558.67 -1217.77
117 -0.000171995 14.2864 60.6828 -1377.57 -34934.7 -20417.5 5630.54 5984.59 -24561
137 -0.000168858 17.1417 60.6827 -33593 -53674.6 -1080.68 42315.2 9399.2 -7644.02
157 14.2764 19.9969 60.6825 -25111.8 -31440.5 -4074.17 -28337.9 -10873 -10435.5
177 14.2764 22.8521 60.6822 -64654.9 -2308.86 -11536.5 14838.2 31343.1 -2648.62
197 -8.05064e-05 25.7073 60.6821 -30863.6 -37588 -1236.55 35763.2 -9939.02 16590.2
217 2.85522 28.5627 60.6821 -285.576 -36259.6 -4360.42 -7359.66 -2332.23 -10183.1
237 2.85521 2.86513 60.6823 -10866.7 -13309.3 -19141.2 -12740.7 15593.8 20833.6
257 2.85519 5.7205 60.6825 -14321.9 -29288.2 -2052.02 20280 6235.56 -4119.44
277 2.85514 8.57584 60.6827 -6089.43 -53298.9 -7959.09 -18019.6 -5410.35 -17468.6
297 2.85511 11.4312 60.6828 -4288.8 -43948.8 -10967.9 -13627.7 -4992.82 -19560.8
317 2.85509 14.2864 60.6828 -119.487 -5136.58 -22680.2 16.9183 1524.71 12774.2
337 2.8551 17.1417 60.6827 -3038.68 -55020.3 274.544 -13136.3 3141.72 8279.78
357 2.85513 19.9969 60.6824 -23316.5 -5193.39 1145.89 11721.9 5461.54 1180.27
377 2.85516 22.8521 60.6822 -7688.46 829.972 -15225.5 -1273.25 13759.6 6250.12
397 2.8552 25.7073 60.682 -27250.3 -36404.2 -3378.39 -32932.7 -12089.6 -10077.9
417 5.71051 28.5627 60.6821 -30777.4 -43083.2 -390.59 -37981.3 -7522.45 -5142.79
437 5.71051 2.86512 60.6823 -27115.8 -44807.6 -28578 -35827.7 -27746.3 -32461
457 5.71048 5.72049 60.6825 -10501.3 -12793.3 -2311.39 11666.3 6095.32 -2045.02
477 5.71044 8.57582 60.6827 77.7672 -20852.7 -727.204 -1263.34 1580.3 6628.91
497 5.7104 11.4311 60.6828 -3014.82 -26286.5 -8079.23 -9303.13 -3203.9 -12022.6
517 5.71038 14.2864 60.6828 -1421.92 -37700.3 -544.262 7765.14 878.881 7435.41
537 5.7104 17.1417 60.6827 -32816.3 -3682.28 -2563.12 -11036.9 -8710.81 -1163.62
557 5.71042 19.9969 60.6824 -8878.21 -12639.8 -22428.6 -11037.8 16870.4 20747.7
577 5.71046 22.8521 60.6822 1448.45 -10392.8 2369.53 -170.373 1279.38 4919.6
597 5.7105 25.7074 60.682 -22828.8 1672.92 2111.95 -1845.47 -2217.5 4343.79
617 8.56582 0.00971381 60.6821 -14407.6 -981.916 -15115.6 6351.89 16986.2 -1831.39
637 8.56582 2.86511 60.6823 -3167.89 -6432.93 471.471 -5286.18 786.947 4366.49
657 8.56581 5.72048 60.6825 -297.132 -31005.5 -9260.22 3271.91 2763.34 -13091.9
677 8.56577 8.57582 60.6827 -8405.69 -59.5823 -1086.76 274.054 3439.02 2919.96
697 8.56573 11.4311 60.6828 -14671.1 -5226.38 -587.871 -8594.22 2327.42 2892.18
717 8.56572 14.2864 60.6828 -6450.61 -14589.4 -15856.3 9749.26 -8324.67 17210.7
737 8.56573 17.1417 60.6827 -17079.5 -33568.1 -9556.87 -24009.2 14906.8 20652.3
757 8.56575 19.9969 60.6824 -11744.7 -1393.46 -14719.2 4839.71 -12828.3 8187.69
777 8.56579 22.8521 60.6822 -54625.7 -16950.4 -3374.55 31953.5 -16792.3 13998.6
797 8.56581 25.7074 60.682 -11714.1 -3844.77 -6708.89 8732.79 -10273.6 11807.1
817 11.4211 28.5627 60.6821 -6090.42 1383.32 -584.771 326.897 -3044.03 5013.06
837 11.4211 2.8651 60.6823 -225.513 -14637.9 -11497.3 2651.39 -1684.96 17698.6
857 11.4211 5.72048 60.6826 -2114.72 -25626.6 -35134.4 -6800.52 -7020.8 -26042.7
877 11.4211 8.57584 60.6828 -7736.76 -12115.1 -936.978 9174.25 1193.9 2765.59
897 11.4211 11.4312 60.6829 -17307.8 -19337.7 -13181.1 17776.9 -13019.9 17493.2
917 11.421 14.2864 60.6829 -25196.8 -13925.1 -20020.2 -18206.9 23682.6 18254.9
937 11.421 17.1417 60.6827 -45100.5 -21343.5 -48671.2 30848.2 48613.1 -29966.5
957 11.4211 19.9969 60.6825 96.1514 -4752.11 -9458.89 -1478.45 3624.13 10234.3
977 11.4211 22.8521 60.6822 -4346.27 -13373.2 -21456.4 8995.92 -10633.5 22496.7
997 11.4211 25.7073 60.682 1623.64 -4722.49 -2429.34 31.6451 713.018 10251.5
