ITEM: TIMESTEP
100
ITEM: NUMBER OF ATOMS
50
ITEM: BOX BOUNDS xy xz yz pp pp pp
0.0000000000000000e+00 1.4276500000000000e+01 0.0000000000000000e+00
0.0000000000000000e+00 2.8567276500132987e+01 0.0000000000000000e+00
0.0000000000000000e+00 8.7105999999999995e+01 1.4276500132986304e-02
ITEM: ATOMS id x y z c_sz2[1] c_sz2[2] c_sz2[3] c_sz2[4] c_sz2[5] c_sz2[6]
17 14.2819 0.010164 60.6753 -5956.87 165903 21884.1 -116034 -84463.5 -97610.3
37 14.2916 2.87854 60.7061 185860 124368 161978 -29846 4328.11 34769.7
57 14.2886 5.7102 60.6838 62961 30982.4 62588.6 -26953.2 -76902.4 104942
77 14.2762 8.59538 60.673 -105424 -108062 -175925 -137161 -127591 2836.39
97 14.2742 11.4361 60.657 -50460.3 -113264 -35515.8 20420.5 7546.79 113704
117 14.2847 14.2619 60.6638 74204.9 -152406 -14063.9 -66821.7 55687.8 -83653.5
137 14.2997 17.1157 60.6769 16526.4 -111528 9562.18 111985 -54832.7 34298.8
157 14.2518 19.9717 60.6728 -66203.4 52160 -8508.51 -44758.1 -75813.7 -51695.5
177 14.2479 22.8645 60.7068 -17499.9 83177.3 35429.9 40138.3 218062 -39632.9
197 0.022493 25.6844 60.6909 -79648.4 -83804.1 -68013.7 146432 -90210.3 112455
217 2.85581 -0.0116714 60.6745 -48589.3 74040.3 52015.6 3636.22 48938.7 65359
237 2.86521 2.88223 60.666 60001.3 58114.6 6318.47 34583.8 -15737.1 4929.45
257 2.877 5.70438 60.6802 -43681 -66153.7 11583.6 40832.3 78740.3 94266.9
277 2.85116 8.55132 60.6703 -8577 -117991 -349.205 94177.6 84653.5 23912.7
297 2.84568 11.4067 60.6718 102098 28737.5 16615.2 -135088 -5127.66 3458.64
317 2.85959 14.2798 60.7 -58625.1 72038.5 -109435 178744 62417 88739.5
337 2.86535 17.1662 60.682 35715.5 -4522.02 48687.8 -44430.5 84377.8 -125338
357 2.83946 20.0043 60.699 226801 145834 166375 36968.4 83237 -36191.4
377 2.84696 22.8508 60.7048 116193 -3991.54 -37257.1 -16926.3 57206.5 -10427.5
397 2.84 25.6838 60.6742 -47780.3 -94614.8 36758.3 18049.5 126508 37.4738
417 5.68515 -0.0139638 60.6704 -250093 -111997 -89400.8 -96264.5 -59848.9 81051.6
437 5.72967 2.88859 60.7103 -41098.3 52615.7 -61929.5 -10574.4 -147074 -221420
457 5.69566 5.73827 60.6921 -53001.7 -122942 24546.9 -64559.9 35055.7 -8754.49
477 5.71411 8.54987 60.6857 -46435 -22172.6 -33729.2 76753 30676.2 14428.6
497 5.72014 11.4591 60.703 119669 171112 80748.1 -43824.1 -42275 -10945.7
517 5.71164 14.3075 60.6753 -62608.6 -138817 -88473.9 -75044.2 101709 -26324.9
537 5.73423 17.1486 60.6957 -74010.8 -31841.2 28918.1 10042.8 -86769.2 -24989.9
557 5.70303 19.9805 60.7049 36379 30178.7 -88922 -109007 100411 94789.3
577 5.71228 22.8726 60.6767 -88772.2 -66366.4 -65640.6 -5714.51 -23453.9 46167.4
597 5.72164 25.707 60.6813 -57465.4 -146551 -96713.8 -37169.1 -190726 -36879
617 8.54181 0.0204167 60.6941 -22019.9 -173734 -118482 -12969.5 -33118.6 13955.9
637 8.56567 2.84654 60.6745 -184325 -230440 -157512 14691.6 112434 -109759
657 8.56735 5.69731 60.6692 53210.9 18230.5 -245.526 -25221.4 -35731.1 -5250.54
677 8.54992 8.58992 60.6801 -123318 -82506 -79769.6 -9718.34 -53285 139747
697 8.54939 11.4176 60.6767 -67563.4 -221731 -135270 93143.9 32132.4 -64784.4
717 8.57063 14.2634 60.6941 -137002 -149176 -133923 -375.558 -119725 -72901.9
737 8.55006 17.1208 60.7032 -93133.6 67646.8 36883.3 -99088.8 88696.8 129691
757 8.55634 20.0017 60.6589 -39799.3 67264.2 -151754 -14985.4 25577.8 -12995.9
777 8.5389 22.8739 60.6742 -106430 -9628.13 33764.2 181660 44997.7 85726.8
797 8.55059 25.7186 60.671 4393.56 -14475.2 17038.6 134035 11411.6 64529.9
817 11.4434 0.00848616 60.6914 72842.2 160588 73541.5 6296.66 88758.9 13199.7
837 11.4079 2.89162 60.6587 -76036.9 -162375 -173470 90774 -142612 201566
857 11.4261 5.73199 60.7054 -23433.4 -97385.2 -159644 28281.3 -23062.1 -154353
877 11.4166 8.59357 60.6847 22976.1 -98187.5 41716.3 86424.1 98857.8 23072.3
897 11.4396 11.4109 60.7053 56027.1 -75493.5 70148.3 -43412.5 -78291.6 51632
917 11.3991 14.2696 60.7044 9591.57 131762 -85179.2 -58753.1 84934.5 60077.1
937 11.3934 17.1644 60.7096 -54818.4 -34773.5 -220720 123360 175651 -103427
957 11.4254 20.0069 60.666 -61979.3 -29327.6 -74177.5 -46494.5 -9761.98 67209.8
977 11.4104 22.8703 60.6627 37993 -63372.8 -31347.3 14551.5 -89121 73826.4
997 11.4221 25.6924 60.692 113587 -54565.1 -28998 -58143.5 23290.3 -16443.5
ITEM: TIMESTEP
200
ITEM: NUMBER OF ATOMS
50
ITEM: BOX BOUNDS xy xz yz pp pp pp
0.0000000000000000e+00 1.4276500000000000e+01 0.0000000000000000e+00
0.0000000000000000e+00 2.8567276500132987e+01 0.0000000000000000e+00
0.0000000000000000e+00 8.7105999999999995e+01 1.4276500132986304e-02
ITEM: ATOMS id x y z c_sz2[1] c_sz2[2] c_sz2[3] c_sz2[4] c_sz2[5] c_sz2[6]
17 5.93839e-05 0.00999687 60.6822 -9877.33 -2219.92 -3987.32 -4984.44 5986.9 5325.42
37 6.39079e-05 2.86533 60.6824 -8403.45 -4206.01 -8030.91 -5615.46 -8441.24 -3197.76
57 5.50948e-05 5.72062 60.6826 -20778.4 -11152.3 -966.586 14352.2 1333.72 1086.69
77 6.49543e-05 8.57592 60.6828 -4114.46 -21839.7 -1048.7 -8262.78 -362.892 2596.41
97 14.2766 11.4312 60.6829 -1237.45 -1108.84 -39026 -361.04 -4467.91 -1478.59
117 5.73206e-05 14.2865 60.6829 -1637.73 -35105.4 -21200 5707.18 3881.19 -24927
137 5.36185e-05 17.1418 60.6828 -33995.5 -53866.3 -2252.59 42327 7371.73 -8427.54
157 14.2766 19.997 60.6826 -25754.9 -31741.9 -5726.24 -28412.6 -12593.6 -12072.9
177 14.2766 22.8523 60.6823 -65576.5 -2949.14 -13451.3 14722.7 29893.5 -5296.05
197 5.34083e-05 25.7077 60.6822 -31986.5 -38725.3 -2912.83 35644.8 -11182.2 13435.7
217 2.85535 28.563 60.6822 -1252.62 -37504.5 -5472.9 -7485.75 -3498.29 -12800.8
237 2.85535 2.86532 60.6823 -11469.6 -14331.5 -19831.4 -12676 14302.7 19053.4
257 2.85536 5.72061 60.6826 -14783.2 -30055.5 -2596.94 20475.9 4657.82 -5148.9
277 2.85535 8.57591 60.6828 -6500 -53868.5 -8591.68 -17738.4 -7328.05 -18014.8
297 2.85535 11.4312 60.6829 -4666.76 -44449 -11802.5 -13359 -7237.05 -19954.8
317 2.85534 14.2865 60.6829 -507.762 -5520.38 -23670.6 155.277 -876.84 12285.9
337 2.85535 17.1418 60.6828 -3501.65 -55301.2 -980.154 -13178.6 801.178 7256.9
357 2.85535 19.997 60.6825 -23944.9 -5528.44 -525.092 11484.8 3412.45 -548.045
377 2.85534 22.8523 60.6823 -8554.39 183.233 -17083.8 -1497.57 12081.9 3592.98
397 2.85535 25.7077 60.6822 -28353.1 -37519.2 -5003.28 -33165.5 -13451.1 -13086.8
417 5.71066 28.563 60.6822 -31947.2 -44472.9 -1772.86 -37886.4 -8859.53 -7636.18
437 5.71067 2.86531 60.6823 -27962.5 -45977.8 -29496.2 -35683.8 -29165.7 -34239.4
457 5.71066 5.72062 60.6826 -11272.2 -13772.6 -3068.03 11957.1 4437.07 -3216.79
477 5.71066 8.57591 60.6828 -570.953 -21621.7 -1424.22 -893.314 -516.434 5853.91
497 5.71066 11.4312 60.6829 -3607.81 -26907.1 -8867.3 -9056.17 -5666.44 -12640
517 5.71065 14.2865 60.6828 -1966.41 -38179.9 -1320.96 7749.72 -1672.72 6753.49
537 5.71066 17.1418 60.6827 -33420.8 -4064.51 -3569 -11164.1 -11131.1 -2155.49
557 5.71066 19.9971 60.6825 -9591.42 -13039.4 -23854.4 -11291.5 14642.4 19113
577 5.71065 22.8523 60.6823 511.057 -11108.7 621.426 -510.025 -553.54 2414.17
597 5.71065 25.7077 60.6821 -24075.9 461.917 429.216 -2056.83 -3677.21 1469.48
617 8.56596 0.00999812 60.6822 -15680 -2379.74 -16509.8 6432.13 15649.1 -4452.61
637 8.56597 2.86533 60.6824 -4139.66 -7620.89 -387.109 -5147.12 -572.15 2365.94
657 8.56597 5.72063 60.6826 -1045.18 -31959.1 -9878.63 3443.01 1243.74 -14413.1
677 8.56597 8.57592 60.6828 -9001.19 -774.613 -1576.55 441.321 1584.81 2072.13
697 8.56597 11.4312 60.6829 -15229.7 -5769.67 -994.011 -8586.5 90.8046 2275.18
717 8.56596 14.2865 60.6829 -6971.21 -15001.4 -16402.1 9634.39 -10610.4 16593.6
737 8.56596 17.1418 60.6827 -17714.8 -33909.8 -10389.2 -24139.7 12720.2 19768.7
757 8.56597 19.9971 60.6825 -12506.4 -1777.67 -15987.4 4671.17 -14819.3 6710.47
777 8.56597 22.8523 60.6823 -55732.7 -17715 -5125.97 31763.3 -18486.3 11623.5
797 8.56596 25.7077 60.6821 -13107.1 -5132.17 -8549.5 8698.56 -11657.3 8909.32
817 11.4213 28.563 60.6822 -7140.12 187.008 -1694.7 341.509 -4183.65 2240.88
837 11.4213 2.86533 60.6824 -950.034 -15632.3 -12021.1 2730.47 -2873.28 15632.4
857 11.4213 5.72063 60.6826 -2614.51 -26398.8 -35407.3 -6745.57 -8397.46 -27379.6
877 11.4213 8.57592 60.6828 -8066.31 -12648.2 -1117.12 9203.46 -482.987 2136.37
897 11.4213 11.4312 60.6829 -17611.2 -19652.5 -13403.6 17725.5 -14911.3 17099.2
917 11.4213 14.2865 60.6829 -25549.6 -14159.1 -20568.9 -18318.4 21692.9 17836.5
937 11.4213 17.1418 60.6828 -45595.6 -21561.7 -49607.1 30745.2 46664.7 -30711.7
957 11.4213 19.997 60.6825 -626.611 -5087.8 -10896.7 -1599.04 1902.11 8772.6
977 11.4213 22.8523 60.6823 -5391.14 -14096.8 -23366.3 8961.38 -12055.8 19978.7
997 11.4213 25.7077 60.6822 331.653 -5899.69 -4185.27 59.2066 -517.238 7178.24
ITEM: TIMESTEP
250
ITEM: NUMBER OF ATOMS
50
ITEM: BOX BOUNDS xy xz yz pp pp pp
0.0000000000000000e+00 1.4276500000000000e+01 0.0000000000000000e+00
0.0000000000000000e+00 2.8567276500132987e+01 0.0000000000000000e+00
0.0000000000000000e+00 8.7105999999999995e+01 1.4276500132986304e-02
ITEM: ATOMS id x y z c_sz2[1] c_sz2[2] c_sz2[3] c_sz2[4] c_sz2[5] c_sz2[6]
17 -3.31453e-07 0.00995953 60.6822 -9852.54 -2218.93 -3889.77 -4991.73 6525.29 5691.74
37 -1.10385e-06 2.86528 60.6824 -8346.24 -4151.19 -7929.13 -5614.64 -7862.28 -2759.12
57 -1.17086e-06 5.72058 60.6826 -20626.8 -10981.4 -769.948 14425.1 1874.79 1452.54
77 -1.98881e-06 8.57587 60.6828 -3910.95 -21667.9 -769.751 -8257.86 180.57 2992.62
97 14.2765 11.4312 60.6829 -1056.22 -942.071 -38750 -350.858 -3929.3 -1060.15
117 -2.00532e-06 14.2864 60.6829 -1474.88 -34945.2 -20995.3 5725.37 4431.08 -24510.7
137 -1.17401e-06 17.1417 60.6828 -33845.5 -53673 -2056.77 42303.3 7858.56 -8119.26
157 14.2765 19.997 60.6825 -25595.2 -31581.4 -5489.15 -28415.3 -12115.5 -11805
177 14.2765 22.8523 60.6823 -65476.8 -2872.21 -13303.6 14699.1 30356.4 -5018
197 3.04327e-07 25.7076 60.6822 -31905.8 -38649.8 -2773.21 35631.2 -10669.7 13786
217 2.85529 28.563 60.6822 -1225.4 -37478 -5375.22 -7495.65 -2972.13 -12440.9
237 2.85529 2.86528 60.6823 -11459.2 -14290.3 -19751.4 -12677 14870.1 19463.7
257 2.85529 5.72058 60.6826 -14680.5 -29956.5 -2417.48 20487.5 5254.85 -4800.3
277 2.85529 8.57587 60.6828 -6346 -53772.4 -8356.81 -17717.5 -6758.55 -17683.9
297 2.85529 11.4312 60.6829 -4489.04 -44247.9 -11535.9 -13331.7 -6676.43 -19573
317 2.85529 14.2864 60.6829 -329.87 -5303.83 -23422.5 163.246 -324.059 12650.1
337 2.85529 17.1417 60.6827 -3332.72 -55101.7 -725.107 -13204 1391.77 7668.34
357 2.85529 19.997 60.6825 -23835.2 -5394.5 -286.335 11524.8 3964.34 -261.387
377 2.85529 22.8523 60.6823 -8496.5 232.892 -16935.1 -1519.54 12576.5 3935.18
397 2.85529 25.7076 60.6821 -28303.6 -37473.8 -4900.08 -33177.7 -12950.5 -12787.4
417 5.7106 28.563 60.6822 -31856.3 -44391.7 -1607.73 -37961.7 -8297.25 -7292.16
437 5.7106 2.86528 60.6823 -27867.2 -45874.2 -29324.2 -35675 -28557 -33867.2
457 5.71059 5.72058 60.6826 -11055.5 -13589.4 -2813.99 11922.5 5039.56 -2834.59
477 5.71059 8.57587 60.6827 -388.871 -21460.7 -1205.04 -940.772 117.554 6234.72
497 5.71059 11.4312 60.6828 -3414.59 -26722.1 -8599.65 -9069.16 -5051.15 -12247.3
517 5.71059 14.2864 60.6828 -1792.37 -37986.3 -1086.75 7766.58 -1106.69 7137.38
537 5.71059 17.1417 60.6827 -33224.8 -3885.1 -3372.01 -11176.9 -10552.7 -1795.05
557 5.71059 19.997 60.6825 -9492.71 -12941.1 -23710.4 -11283.5 15282.5 19436.2
577 5.7106 22.8523 60.6823 532.718 -11049.9 749.55 -452.897 6.88936 2760.23
597 5.7106 25.7076 60.6821 -24010.1 527.265 525.732 -2061.87 -3162.55 1777.27
617 8.5659 0.00995864 60.6822 -15521.4 -2258.56 -16273.1 6399.64 16238.6 -4111.31
637 8.56591 2.86528 60.6823 -3910.98 -7438.3 -125.179 -5174.77 36.8615 2794.17
657 8.56591 5.72058 60.6826 -794.295 -31717.3 -9536.99 3443 1837.62 -13994.3
677 8.56591 8.57587 60.6828 -8795.9 -556.909 -1250.47 440.504 2150.03 2494.46
697 8.56591 11.4312 60.6829 -15018.8 -5544.4 -705.398 -8577.51 686.241 2712.59
717 8.56591 14.2864 60.6828 -6805.99 -14796.8 -16161.6 9637.23 -10078.6 17009.7
737 8.56591 17.1417 60.6827 -17534.3 -33740.3 -10231.5 -24173 13251.1 20133
757 8.56591 19.997 60.6825 -12392.1 -1686.25 -15906 4656.44 -14248.7 7000.26
777 8.56591 22.8523 60.6823 -55625.3 -17595.6 -4984.98 31793.8 -17909.8 11929
797 8.5659 25.7076 60.6821 -12981.9 -5000.91 -8362.32 8720.68 -11107.1 9217.66
817 11.4212 28.563 60.6822 -7087.44 225.542 -1544.94 337.613 -3637.19 2604.31
837 11.4212 2.86528 60.6824 -795.518 -15503.7 -11827.3 2697.25 -2296.05 16035.7
857 11.4212 5.72058 60.6826 -2377.93 -26172.4 -35119.9 -6728.72 -7805.3 -26915.8
877 11.4212 8.57587 60.6828 -7870.21 -12406.1 -803.448 9202.39 89.9795 2535.99
897 11.4212 11.4312 60.6829 -17417.1 -19443.9 -13155.3 17752.7 -14367.7 17546.6
917 11.4212 14.2864 60.6829 -25390.8 -13959.7 -20331.4 -18266.6 22193.9 18256.5
937 11.4212 17.1417 60.6827 -45445.8 -21383.6 -49438.9 30765.4 47159.7 -30371.7
957 11.4212 19.997 60.6825 -488.937 -4941.97 -10767.1 -1578.42 2369.25 9017.58
977 11.4212 22.8523 60.6823 -5262.04 -13975.4 -23202.5 8961.3 -11532.9 20259.9
997 11.4212 25.7076 60.6822 457.636 -5805.65 -4021.2 35.9508 11.5725 7522.88
