ITEM: TIMESTEP
100
ITEM: NUMBER OF ATOMS
50
ITEM: BOX BOUNDS xy xz yz pp pp pp
0.0000000000000000e+00 1.4276500000000000e+01 0.0000000000000000e+00
0.0000000000000000e+00 2.8567276500132987e+01 0.0000000000000000e+00
0.0000000000000000e+00 8.7105999999999995e+01 1.4276500132986304e-02
ITEM: ATOMS id x y z c_sz1[1] c_sz1[2] c_sz1[3] c_sz1[4] c_sz1[5] c_sz1[6]
5 14.2628 28.5738 26.4505 -31356.4 -79229.6 -133219 160312 75594.5 -61133.3
25 14.2802 2.83595 26.4362 -65003.4 -164455 -79529.3 58030.1 68315 35991.1
45 14.2975 5.69906 26.4446 -96684.1 64566 -77102.5 -15770.1 -80063.2 -57235
65 14.2962 8.58697 26.4445 -21388.7 -48014.1 -220400 -106540 7695.44 -54012.1
85 14.2497 11.451 26.4087 -85445.7 -158800 -91060.1 53604.9 -8879.87 63952.2
105 14.2497 14.2936 26.4359 -159447 -77236.8 -100959 87648.6 12496.2 -10017.3
125 14.2543 17.1431 26.42 -53637.5 -79975.9 -19390.8 21275.5 -65369 -53861.8
145 14.2776 19.9676 26.4426 89172.1 -23623.7 70941.8 52831.5 -23472.6 140119
165 14.2842 22.8281 26.4137 -31347.1 57417.9 -10908.3 -2569.51 32795.9 25565.9
185 0.0244117 25.7054 26.4047 -83159 120374 31956.1 41075.9 6433.42 37876.3
205 2.83894 28.5661 26.4149 68807.6 42952.8 -14589.7 95376.4 -3578.16 41137.5
225 2.85561 2.85224 26.4219 -22745.6 -2795.77 -117862 -74662.2 66339.3 30730.6
245 2.84749 5.73626 26.4006 48468.3 42582.6 -62618.7 59326.1 45169.6 35589
265 2.88089 8.57454 26.4022 -177100 -61773 -65855 -37307.4 -51001.9 38162.4
285 2.8818 11.4176 26.4197 17201.8 36285.4 53402.7 96910.4 19310.3 -159380
305 2.83972 14.2857 26.412 -1706.63 88983.2 -6288.4 -81130.8 28920.5 114788
325 2.86769 17.1567 26.4068 67334.2 -53157.3 -54377 34778.4 26151.9 -27465.1
345 2.84239 19.9911 26.4188 -1812.58 75262.2 95270.6 1.44933 -223.948 124047
365 2.85677 22.8658 26.4417 74973.8 9897.99 -5114.59 20406.3 29909.2 73552.5
385 2.84908 25.6757 26.428 -65535 -54572.7 -15622.5 -111766 -14949 -3518.42
405 5.73032 28.5741 26.4286 218974 143417 246746 -84637.6 65429.1 23685.4
425 5.71849 2.8571 26.4114 92876.8 47189.7 -1939.23 30873.6 34559.8 -83315.2
445 5.72326 5.72441 26.4138 53751.8 38644.8 81895.1 -71324.6 -59195.1 41637.3
465 5.69749 8.54965 26.4083 -224472 -136990 -74957.5 14201.2 72244.9 -161429
485 5.70727 11.4315 26.4507 -273229 -56743 -260265 -12117.6 -681.168 -75075.5
505 5.68382 14.3036 26.4382 -64436 -93117.2 26850.6 46159.4 67130.5 14419.5
525 5.71764 17.1206 26.401 -83026.1 -201580 -124776 6841.77 -33808.9 -114880
545 5.68291 19.968 26.4047 -236512 -126111 -116561 -113762 -223841 38568.2
565 5.71221 22.8522 26.4216 -1307.4 59766.7 -47878.9 -23626.7 -10351.8 26336.4
585 5.70005 25.7138 26.4101 -36998.6 3174.33 -91224.6 1315.12 -3658.68 94800.6
605 8.57202 28.5401 26.4012 13831.1 60329.9 74577.4 49491.4 -23317.3 -56111.2
625 8.5901 2.85789 26.4304 -108215 35735.6 -67616.4 5393.89 48766.4 -7056.28
645 8.54704 5.72112 26.406 -129145 -145998 -197390 -38127.8 -68103.6 -31606.7
665 8.5443 8.55335 26.435 -146121 -199051 -94499.5 33340.9 8346 57969.2
685 8.54917 11.4028 26.4305 -80918.2 -127751 -114528 -6903.13 128807 12780.1
705 8.54716 14.2743 26.4336 92123.4 111078 -15574.8 -138936 43184.8 -42163.3
725 8.56536 17.145 26.4471 37248.1 -20781.9 -8614.36 -42850.4 20710.7 -11238.4
745 8.54636 19.9723 26.4449 -94404.6 -79412.9 -40922.9 -38679.5 80454.6 75327.6
765 8.5707 22.864 26.4165 119819 71682.6 90275.9 28399 4864.63 105830
785 8.55381 25.6906 26.4087 4070.63 -102552 -78571.9 8448.05 -75863.3 -103893
805 11.4086 28.5829 26.4459 -82864.3 38577.8 -84894.2 134173 -20850.4 -114113
825 11.4308 2.88715 26.3984 -158712 -252434 -153256 -27767.8 91977.7 21739.7
845 11.4364 5.71776 26.4179 59474.3 -72537.3 -4127.34 -108744 109686 74021.3
865 11.399 8.57919 26.3987 83682.9 -10129.6 64625.7 56331.1 -166826 124611
885 11.4338 11.4014 26.4272 50587.2 42339.3 47700.4 124489 -10334.1 -29838.8
905 11.4294 14.2905 26.4083 35073.8 154415 29421.2 -11373 46293 -103998
925 11.4332 17.1508 26.431 -143112 -181598 -152443 -45589.1 -56402.1 -150546
945 11.4184 19.9829 26.4327 -51030 -163652 -68947 26927 90910.2 117089
965 11.4391 22.8531 26.4112 -112589 -135196 -184683 -16719.9 32711.8 76897.6
985 11.4295 25.6772 26.4508 -20524.1 -123598 -261287 -124107 -12758.3 129941
ITEM: TIMESTEP
200
ITEM: NUMBER OF ATOMS
50
ITEM: BOX BOUNDS xy xz yz pp pp pp
0.0000000000000000e+00 1.4276500000000000e+01 0.0000000000000000e+00
0.0000000000000000e+00 2.8567276500132987e+01 0.0000000000000000e+00
0.0000000000000000e+00 8.7105999999999995e+01 1.4276500132986304e-02
ITEM: ATOMS id x y z c_sz1[1] c_sz1[2] c_sz1[3] c_sz1[4] c_sz1[5] c_sz1[6]
5 14.2765 0.00433503 26.4234 -9462.45 -10571.7 -34769.2 10269.3 19057.9 -17248.9
25 5.45553e-05 2.85961 26.4233 -5521.43 -28949.6 -5814.15 12333.4 -5152.16 15269.3
45 5.11182e-05 5.7149 26.4231 -22990.1 -30571.4 -23125 25985.7 -22157.6 28316.1
65 2.92538e-05 8.57021 26.423 -31678.8 -16065.8 -7196.66 -22103.7 -13890.1 -7867.55
85 14.2765 11.4255 26.4229 -21124.3 -39678.5 -15630.5 28381.8 -17137.9 26554.7
105 14.2765 14.2809 26.4229 -46641.3 -13775.2 -6793.4 24874.4 17174.9 -6518.7
125 14.2765 17.1362 26.423 -26584.3 -316.598 -488.227 1723.62 -2141.52 2917.16
145 4.82567e-05 19.9915 26.4231 -35.1787 -19006.2 -37566.6 -1512.91 2571.8 29557.8
165 4.85705e-05 22.8468 26.4233 -5730.4 -13069.4 -2887.77 9269.81 5333.13 -4644.58
185 5.22674e-05 25.7021 26.4234 -20989.3 -728.102 -10243.5 -5180.86 16119.8 6184.74
205 2.85535 0.00434086 26.4234 -8628.18 -2418.35 -2724.43 4860.07 -5301.57 5458.21
225 2.85534 2.8596 26.4233 -2302.8 -439.526 -2201.11 731.181 2708.07 1398.84
245 2.85534 5.71489 26.4231 -366.418 -18029.1 -21040.9 369.317 -87.1371 21264.6
265 2.85532 8.5702 26.423 -16940.4 -2222.16 -22881.7 -5568.19 19398.1 8638.47
285 2.85532 11.4255 26.4229 -28723.9 -15485.5 -692.268 20709.9 362.814 2240.19
305 2.85533 14.2809 26.4229 -12470.1 -10428.6 -5536.69 11176.9 -7479.7 9714.49
325 2.85533 17.1362 26.423 -6461.81 -11798 -14429.7 -8531.36 9794.2 15697.3
345 2.85534 19.9915 26.4232 -10683.2 -5935.22 368.599 8224.51 1606.11 1814.14
365 2.85535 22.8468 26.4233 -544.024 -31783.2 -26410.6 -5995.39 -5079.7 -27208
385 2.85535 25.7021 26.4234 -1271 -31780.3 -552.031 -7861.33 2340.85 10183.5
405 5.71064 0.00432949 26.4234 -28803.5 -20488.7 -19109.2 -24658 -23922.4 -18148.1
425 5.71064 2.85959 26.4233 -6646.71 -2032.08 -4324.84 3641.08 6017.63 -920.595
445 5.71064 5.71489 26.4231 -1554.93 -4323.3 -834.525 -2454.45 1283.09 3751.79
465 5.71063 8.5702 26.423 -2166.94 -38876.5 -16431.2 -8406.83 -5092.08 -22545.3
485 5.71063 11.4255 26.4229 -1471.17 -275.984 -13991 305.079 4172.76 1399.74
505 5.71064 14.2809 26.4229 -45300.7 -38083.9 -19408 41409.3 29526.3 -24286.3
525 5.71063 17.1362 26.423 -500.652 -19855.6 -29609.9 2907.25 3885.48 -21450.3
545 5.71064 19.9915 26.4232 -78411.2 -12282 -27755.4 -31390.6 -46812.9 -16139.5
565 5.71064 22.8468 26.4234 581.54 -1185.41 128.29 -376.549 626.343 3995.35
585 5.71064 25.7021 26.4235 -4176.39 -15362.7 -10365.8 8928.12 -7268.54 16314.6
605 8.56595 28.5573 26.4234 -223.159 -15463.2 -9602.95 3144.73 3025.73 -10471.7
625 8.56595 2.8596 26.4233 -43456.1 -1036.96 -614.034 6285.9 -5561.43 3070.7
645 8.56595 5.71489 26.4231 -15015.4 -420.218 -30617.5 1352.02 -20692.4 4046.43
665 8.56593 8.57021 26.423 -34461.8 -13518.8 -3334.52 -21130.1 9920.45 8226.44
685 8.56594 11.4255 26.4229 -2176.78 -34834.2 -755.741 -7723.49 670.203 3595.89
705 8.56594 14.2809 26.4229 -17087.9 -5864.18 -6759.73 -9757.15 10619.3 8521.74
725 8.56594 17.1362 26.423 -300.109 -2783.62 -37080.5 -754.396 -2247.03 -7310.74
745 8.56593 19.9915 26.4232 -21291.3 -10991.8 -18302.8 -15481.6 20392.1 17165.1
765 8.56594 22.8468 26.4233 -1021.6 -20049 1047.04 -5805.19 526.644 3179.34
785 8.56594 25.7021 26.4234 -11736.7 -12962.9 -11483.7 -12996.2 -12186.5 -10613
805 11.4212 0.0043265 26.4234 -16064 -26188.1 -22151.3 20816.6 19859.3 -22287.2
825 11.4213 2.8596 26.4233 -12110.5 -27167.1 -42659.5 -17931.1 23091.9 36183.7
845 11.4212 5.71489 26.4231 -23116.7 -6224.91 -2080.4 -11494.9 6445.63 5239.89
865 11.4212 8.57022 26.423 -38132 -9512.64 -14778.8 18391.1 -22507.9 13504.8
885 11.4212 11.4255 26.4229 -4011.11 -31613.3 -5460.54 10331.2 -3561.2 14369.3
905 11.4212 14.2809 26.4229 -2398.35 -358.725 -7275.04 108.039 3935.25 2402.46
925 11.4212 17.1362 26.423 -2773.88 -861.438 -191.163 -1285.79 322.476 2728.06
945 11.4212 19.9915 26.4232 -195.295 -122.152 -43.756 -275.569 -42.6658 2373.95
965 11.4212 22.8468 26.4233 -17428.9 -3101.98 -17889.9 -8024.41 18777.6 10779.3
985 11.4212 25.7021 26.4234 -5649.05 -19381.4 -12551.6 11273.9 -8909.6 18948.9
ITEM: TIMESTEP
250
ITEM: NUMBER OF ATOMS
50
ITEM: BOX BOUNDS xy xz yz pp pp pp
0.0000000000000000e+00 1.4276500000000000e+01 0.0000000000000000e+00
0.0000000000000000e+00 2.8567276500132987e+01 0.0000000000000000e+00
0.0000000000000000e+00 8.7105999999999995e+01 1.4276500132986304e-02
ITEM: ATOMS id x y z c_sz1[1] c_sz1[2] c_sz1[3] c_sz1[4] c_sz1[5] c_sz1[6]
5 14.2765 0.00430862 26.4234 -9530.04 -10652.6 -34871.2 10250.8 18628.8 -17457.9
25 -1.06745e-06 2.85958 26.4233 -5547.66 -29002.3 -5913.42 12315.8 -5609.13 15020.9
45 -1.17031e-06 5.71488 26.4231 -23099 -30650.9 -23290.5 26013.3 -22621.5 28096.8
65 -1.99709e-06 8.57019 26.4229 -31823.7 -16236 -7434.26 -22043.7 -14262.4 -8035.42
85 14.2765 11.4255 26.4229 -21252.7 -39850.2 -15844 28388.8 -17504.5 26362.2
105 14.2765 14.2809 26.4229 -46749.8 -13919.4 -6936.21 24905.4 16804 -6724.81
125 14.2765 17.1362 26.423 -26654 -414.798 -608.664 1717.68 -2514.59 2600.41
145 -1.10467e-06 19.9915 26.4231 -106.491 -19018.6 -37667.4 -1517.66 2143.45 29277.4
165 -3.36053e-07 22.8468 26.4233 -5856.93 -13143.2 -2977.1 9221.92 4915.89 -4874.73
185 2.97519e-07 25.702 26.4234 -21035.7 -806.177 -10316.1 -5167.97 15677.5 5978.75
205 2.8553 0.00430775 26.4234 -8660.2 -2440.65 -2823.6 4875.93 -5726.93 5220.93
225 2.8553 2.85958 26.4233 -2303.26 -443.153 -2318.56 733.117 2288.86 1180.99
245 2.8553 5.71487 26.4231 -442.244 -18084.7 -21189.5 421.322 -508.391 21098
265 2.8553 8.57019 26.423 -17029.2 -2296.72 -23018.6 -5533.76 19110.8 8444.84
285 2.8553 11.4255 26.4229 -28775 -15592.3 -828.026 20702.4 116.996 2082.95
305 2.8553 14.2809 26.4229 -12544.3 -10563.1 -5645.18 11160.9 -7813.84 9519.76
325 2.8553 17.1362 26.423 -6497.69 -11856.4 -14517.2 -8551.19 9454.49 15395.3
345 2.8553 19.9915 26.4232 -10702 -5992.98 270.024 8164.37 1184.14 1536.87
365 2.8553 22.8468 26.4233 -588.895 -31850.9 -26501.6 -6001.49 -5570.6 -27466.5
385 2.8553 25.702 26.4234 -1265.19 -31788.7 -636.957 -7891.36 1885.55 9924.14
405 5.7106 0.00430658 26.4234 -28930.8 -20548.8 -19305.9 -24708.1 -24318.1 -18401.4
425 5.7106 2.85958 26.4233 -6764.32 -2119.02 -4493.1 3658.82 5603.45 -1085
445 5.7106 5.71487 26.4231 -1729.01 -4483.92 -1015.55 -2388.76 939.512 3568.41
465 5.7106 8.57019 26.423 -2298.12 -38980.1 -16604 -8416.88 -5395.93 -22747.1
485 5.7106 11.4255 26.4229 -1573.66 -390.513 -14119.2 279.029 3874.11 1238.84
505 5.7106 14.2809 26.4229 -45441.4 -38252.6 -19523.8 41406.6 29231.9 -24466.7
525 5.7106 17.1362 26.423 -570.056 -19898 -29695 2909.44 3556.92 -21727.1
545 5.7106 19.9915 26.4232 -78427.5 -12344.8 -27866.7 -31373.8 -47188.1 -16385.5
565 5.7106 22.8468 26.4233 507.802 -1311.25 22.8722 -358.53 277.418 3717.07
585 5.7106 25.702 26.4234 -4242.44 -15430.1 -10493.6 8899.07 -7630.38 15955.7
605 8.5659 28.5573 26.4234 -316.887 -15528.1 -9704.11 3162.92 2572.46 -10729.3
625 8.5659 2.85958 26.4233 -43611.6 -1120.15 -744.699 6294.21 -6016.5 2858.14
645 8.5659 5.71487 26.4231 -15160.2 -565.157 -30768.9 1358.31 -21064.9 3866.81
665 8.5659 8.57019 26.423 -34604.4 -13657.2 -3502.04 -21135.8 9604.77 7992.46
685 8.5659 11.4255 26.4229 -2314.87 -34972 -914.919 -7725.93 320.778 3413.28
705 8.5659 14.2809 26.4229 -17273.5 -6040.76 -6917.32 -9788.17 10263.1 8308.73
725 8.5659 17.1362 26.423 -441.391 -2904.26 -37215.5 -736.096 -2600.27 -7548.07
745 8.5659 19.9915 26.4232 -21352.5 -11089.4 -18420.5 -15503.7 20096.2 16919.9
765 8.5659 22.8468 26.4233 -1124.46 -20161.9 958.239 -5809.58 175.114 2921.96
785 8.5659 25.702 26.4234 -11811.3 -13019 -11550 -12966 -12581.3 -10879.7
805 11.4212 0.0043086 26.4234 -16155.2 -26291.2 -22273.4 20802.3 19381.1 -22486.3
825 11.4212 2.85958 26.4233 -12222.7 -27272.4 -42801.6 -17931.7 22619.6 35954.7
845 11.4212 5.71488 26.4231 -23253.1 -6374.54 -2234.88 -11434 6047.52 5022.81
865 11.4212 8.57019 26.423 -38281.9 -9674.23 -14969.6 18411.7 -22923.9 13296.3
885 11.4212 11.4255 26.4229 -4163.78 -31754.8 -5617.99 10310 -3944.56 14188.5
905 11.4212 14.2809 26.4229 -2559.31 -524.147 -7409.84 103.546 3580.12 2142.14
925 11.4212 17.1362 26.423 -2928.58 -999.388 -399.767 -1321.32 -56.4818 2403.59
945 11.4212 19.9915 26.4231 -340.373 -192.827 -202.927 -247.739 -376.829 2145.1
965 11.4212 22.8468 26.4233 -17595 -3247.04 -18051.5 -8022.27 18455.6 10537.9
985 11.4212 25.702 26.4234 -5758.36 -19487.7 -12667.2 11205.4 -9304.98 18743.9
