Generated by pymatgen.io.lammps.data.LammpsData

1999  atoms

   2  atom types

0.000000 28.553120  xlo xhi
0.000000 28.553120  ylo yhi
0.000000 28.553120  zlo zhi
0.000000 0.000000 0.000000  xy xz yz

Masses

1  55.847000
2  30.973762

Atoms

1     0  1 28.466435 28.498095 28.466435
2     0  1 28.552146  0.002765  2.852111
3     0  1 28.552569  0.000645  5.710625
4     0  1 28.552826  0.000283  8.565908
5     0  1 28.553034  0.000140 11.421160
6     0  1  0.000092  0.000030 14.276387
7     0  1  0.000385  0.000012 17.131521
8     0  1  0.001227  0.001024 19.986446
9     0  1  0.004084  0.010782 22.843503
10    0  1  0.064988 28.544540 25.706388
11    0  1  0.000661  2.859228  0.000661
12    0  1  0.002840  2.856002  2.854268
13    0  1  0.000383  2.855739  5.710395
14    0  1  0.000004  2.855561  8.565890
15    0  1 28.553107  2.855445 11.421221
16    0  1 28.553117  2.855299 14.276570
17    0  1 28.553026  2.854994 17.132134
18    0  1 28.551858  2.853356 19.989620
19    0  1 28.531519  2.830134 22.867674
20    0  1  0.004084  2.854305 25.687026
21    0  1  0.001967  5.713725  0.001967
22    0  1 28.552983  5.710881  2.855032
23    0  1  0.000238  5.710502  5.710105
24    0  1  0.000121  5.710740  8.565788
25    0  1  0.000008  5.710695 11.421289
26    0  1 28.552996  5.710409 14.276904
27    0  1 28.552709  5.709532 17.133128
28    0  1 28.552262  5.707067 19.990741
29    0  1 28.551858  5.708188 22.844452
30    0  1  0.001227  5.711362 25.696784
31    0  1  0.000380  8.566714  0.000380
32    0  1 28.553023  8.566411  2.855513
33    0  1 28.553043  8.566009  5.710447
34    0  1  0.000006  8.565965  8.565755
35    0  1 28.553083  8.565911 11.421321
36    0  1 28.552964  8.565511 14.277086
37    0  1 28.552787  8.564704 17.133104
38    0  1 28.552709  8.564680 19.988276
39    0  1 28.553026  8.565674 22.842814
40    0  1  0.000385  8.566287 25.697796
41    0  1  0.000037 11.421554  0.000037
42    0  1 28.553019 11.421612  2.855350
43    0  1 28.552972 11.421551  5.710534
44    0  1 28.553000 11.421446  8.565758
45    0  1 28.553017 11.421275 11.421233
46    0  1 28.552989 11.420933 14.276875
47    0  1 28.552964 11.420722 17.132297
48    0  1 28.552996 11.420904 19.987399
49    0  1 28.553117 11.421238 22.842509
50    0  1  0.000092 11.421421 25.697778
51    0  1 28.552966 14.276785 28.552966
52    0  1 28.552902 14.276987  2.855080
53    0  1 28.552884 14.277155  5.710244
54    0  1 28.552911 14.277117  8.565478
55    0  1 28.552960 14.276844 11.420964
56    0  1 28.553017 14.276575 14.276533
57    0  1 28.553083 14.276487 17.131897
58    0  1  0.000008 14.276519 19.987113
59    0  1 28.553107 14.276587 22.842363
60    0  1 28.553034 14.276648 25.697668
61    0  1 28.552726 17.132212 28.552726
62    0  1 28.552605 17.132780  2.854541
63    0  1 28.552655 17.133189  5.709470
64    0  1 28.552786 17.132929  8.564879
65    0  1 28.552911 17.132330 11.420691
66    0  1 28.553000 17.132050 14.276362
67    0  1  0.000006 17.132053 17.131843
68    0  1  0.000121 17.132020 19.987068
69    0  1  0.000004 17.131918 22.842247
70    0  1 28.552826 17.131900 25.697525
71    0  1 28.552567 19.987904 28.552567
72    0  1 28.551626 19.989855  2.852954
73    0  1 28.552144 19.989896  5.707912
74    0  1 28.552655 19.988338  8.564619
75    0  1 28.552884 19.987564 11.420653
76    0  1 28.552972 19.987274 14.276257
77    0  1 28.553043 19.987361 17.131799
78    0  1  0.000238 19.987703 19.987306
79    0  1  0.000383 19.987413 22.842069
80    0  1 28.552569 19.987183 25.697163
81    0  1  0.001430 22.844371  0.001430
82    0  1 28.548614 22.850752  2.847056
83    0  1 28.551626 22.844854  5.707953
84    0  1 28.552605 22.843267  8.565028
85    0  1 28.552902 22.842728 11.420821
86    0  1 28.553019 22.842458 14.276196
87    0  1 28.553023 22.842295 17.131397
88    0  1 28.552983 22.842776 19.986927
89    0  1  0.002840 22.843540 22.841806
90    0  1 28.552146 22.845697 25.695043
91    0  1 28.507881 25.743047 28.507881
92    0  1  0.001430 25.696378  2.853437
93    0  1 28.552567 25.698361  5.709904
94    0  1 28.552726 25.698202  8.565596
95    0  1 28.552966 25.697962 11.421023
96    0  1  0.000037 25.697771 14.276254
97    0  1  0.000380 25.697428 17.131094
98    0  1  0.001967 25.695841 19.984083
99    0  1  0.000661 25.697147 22.838580
100   0  1 28.466435 25.784493 25.752833
101   0  1  2.852111  0.002765 28.552146
102   0  1  2.848384  0.000477  2.848384
103   0  1  2.853437  0.000059  5.708571
104   0  1  2.854763  0.000117  8.565330
105   0  1  2.855177  0.000137 11.420991
106   0  1  2.855376  0.000170 14.276372
107   0  1  2.855490  0.000323 17.131736
108   0  1  2.855145  0.000595 19.987547
109   0  1  2.855558 28.552054 22.842813
110   0  1  2.863406  0.005042 25.692766
111   0  1  2.854268  2.856002  0.002840
112   0  1  2.845742  2.846846  2.845742
113   0  1  2.853764  2.854091  5.708725
114   0  1  2.854980  2.855180  8.565467
115   0  1  2.855233  2.855391 11.421096
116   0  1  2.855280  2.855450 14.276562
117   0  1  2.855166  2.855551 17.132178
118   0  1  2.854707  2.856084 19.988272
119   0  1  2.855356  2.854429 22.843379
120   0  1  2.855558  2.854995 25.698874
121   0  1  2.855032  5.710881 28.552983
122   0  1  2.854358  5.710181  2.854358
123   0  1  2.855224  5.710106  5.709676
124   0  1  2.855269  5.710523  8.565528
125   0  1  2.855248  5.710652 11.421162
126   0  1  2.855067  5.710511 14.276808
127   0  1  2.854362  5.709767 17.132992
128   0  1  2.851665  5.706778 19.991030
129   0  1  2.854707  5.709536 22.841724
130   0  1  2.855145  5.710261 25.697213
131   0  1  2.855513  8.566411 28.553023
132   0  1  2.855453  8.566541  2.855453
133   0  1  2.855230  8.566035  5.710355
134   0  1  2.855259  8.565932  8.565634
135   0  1  2.855206  8.565922 11.421212
136   0  1  2.855012  8.565615 14.276954
137   0  1  2.854651  8.564928 17.132880
138   0  1  2.854362  8.564816 19.988041
139   0  1  2.855166  8.565630 22.842257
140   0  1  2.855490  8.566072 25.697485
141   0  1  2.855350 11.421612 28.553019
142   0  1  2.855276 11.421741  2.855276
143   0  1  2.855164 11.421663  5.710471
144   0  1  2.855146 11.421517  8.565692
145   0  1  2.855134 11.421335 11.421150
146   0  1  2.855072 11.421034 14.276774
147   0  1  2.855012 11.420854 17.132193
148   0  1  2.855067 11.421000 19.987297
149   0  1  2.855280 11.421246 22.842358
150   0  1  2.855376 11.421436 25.697638
151   0  1  2.855080 14.276987 28.552902
152   0  1  2.854991 14.277181  2.854991
153   0  1  2.854927 14.277307  5.710147
154   0  1  2.854964 14.277214  8.565401
155   0  1  2.855050 14.276916 11.420892
156   0  1  2.855134 14.276658 14.276473
157   0  1  2.855206 14.276596 17.131886
158   0  1  2.855248 14.276646 19.987156
159   0  1  2.855233 14.276712 22.842417
160   0  1  2.855177 14.276817 25.697671
161   0  1  2.854541 17.132780 28.552605
162   0  1  2.854447 17.133096  2.854447
163   0  1  2.854384 17.133379  5.709334
164   0  1  2.854666 17.133030  8.564778
165   0  1  2.854964 17.132407 11.420594
166   0  1  2.855146 17.132116 14.276291
167   0  1  2.855259 17.132174 17.131876
168   0  1  2.855269 17.132280 19.987285
169   0  1  2.854980 17.132341 22.842628
170   0  1  2.854763 17.132478 25.697691
171   0  1  2.852954 19.989855 28.551626
172   0  1  2.853090 19.990038  2.853090
173   0  1  2.853369 19.990021  5.707787
174   0  1  2.854384 19.988474  8.564429
175   0  1  2.854927 19.987661 11.420501
176   0  1  2.855164 19.987337 14.276145
177   0  1  2.855230 19.987453 17.131773
178   0  1  2.855224 19.988132 19.987702
179   0  1  2.853764 19.989083 22.843717
180   0  1  2.853437 19.989237 25.697749
181   0  1  2.847056 22.850752 28.548614
182   0  1  2.846364 22.851444  2.846364
183   0  1  2.853090 22.844718  5.707770
184   0  1  2.854447 22.843361  8.564712
185   0  1  2.854991 22.842817 11.420627
186   0  1  2.855276 22.842532 14.276067
187   0  1  2.855453 22.842355 17.131267
188   0  1  2.854358 22.843450 19.987627
189   0  1  2.845742 22.852066 22.850962
190   0  1  2.848384 22.849424 25.697331
191   0  1  2.853437 25.696378  0.001430
192   0  1  2.847056 25.702314  2.847056
193   0  1  2.852954 25.699302  5.707953
194   0  1  2.854541 25.698323  8.565028
195   0  1  2.855080 25.698026 11.420821
196   0  1  2.855350 25.697909 14.276196
197   0  1  2.855513 25.697905 17.131397
198   0  1  2.855032 25.697945 19.986927
199   0  1  2.854268 25.694968 22.841806
200   0  1  2.852111 25.698782 25.695043
201   0  1  5.710625  0.000645 28.552569
202   0  1  5.708571  0.000059  2.853437
203   0  1  5.708237 28.553114  5.708237
204   0  1  5.709673  0.000044  8.564847
205   0  1  5.710345  0.000113 11.420816
206   0  1  5.710565  0.000174 14.276413
207   0  1  5.710477  0.000192 17.131956
208   0  1  5.710462 28.553060 19.987230
209   0  1  5.711155 28.552939 22.841845
210   0  1  5.711551  0.000883 25.696925
211   0  1  5.710395  2.855739  0.000383
212   0  1  5.708725  2.854091  2.853764
213   0  1  5.708583  2.854540  5.708583
214   0  1  5.709856  2.855044  8.565033
215   0  1  5.710407  2.855327 11.420945
216   0  1  5.710533  2.855461 14.276564
217   0  1  5.710408  2.855508 17.132151
218   0  1  5.710614  2.855414 19.987329
219   0  1  5.711802  2.856086 22.841722
220   0  1  5.711155  2.855963 25.697989
221   0  1  5.710105  5.710502  0.000238
222   0  1  5.709676  5.710106  2.855224
223   0  1  5.708815  5.709097  5.708815
224   0  1  5.710019  5.710166  8.565173
225   0  1  5.710424  5.710561 11.421040
226   0  1  5.710420  5.710630 14.276710
227   0  1  5.710164  5.710506 17.132393
228   0  1  5.710126  5.710083 19.987725
229   0  1  5.710614  5.710479 22.842394
230   0  1  5.710462  5.710578 25.697868
231   0  1  5.710447  8.566009 28.553043
232   0  1  5.710355  8.566035  2.855230
233   0  1  5.710161  8.565775  5.710161
234   0  1  5.710365  8.565804  8.565512
235   0  1  5.710431  8.565882 11.421128
236   0  1  5.710272  8.565701 14.276840
237   0  1  5.709839  8.565179 17.132629
238   0  1  5.710164  8.565415 19.987302
239   0  1  5.710408  8.565657 22.842300
240   0  1  5.710477  8.565852 25.697616
241   0  1  5.710534 11.421551 28.552972
242   0  1  5.710471 11.421663  2.855164
243   0  1  5.710405 11.421647  5.710405
244   0  1  5.710382 11.421508  8.565645
245   0  1  5.710389 11.421345 11.421101
246   0  1  5.710335 11.421108 14.276700
247   0  1  5.710272 11.420968 17.132107
248   0  1  5.710420 11.421098 19.987178
249   0  1  5.710533 11.421244 22.842347
250   0  1  5.710565 11.421395 25.697634
251   0  1  5.710244 14.277155 28.552884
252   0  1  5.710147 14.277307  2.854927
253   0  1  5.710117 14.277353  5.710117
254   0  1  5.710163 14.277223  8.565387
255   0  1  5.710288 14.276931 11.420877
256   0  1  5.710389 14.276707 14.276463
257   0  1  5.710431 14.276680 17.131926
258   0  1  5.710424 14.276768 19.987247
259   0  1  5.710407 14.276863 22.842481
260   0  1  5.710345 14.276992 25.697695
261   0  1  5.709470 17.133189 28.552655
262   0  1  5.709334 17.133379  2.854384
263   0  1  5.709414 17.133353  5.709414
264   0  1  5.709753 17.132988  8.564820
265   0  1  5.710163 17.132421 11.420585
266   0  1  5.710382 17.132163 14.276300
267   0  1  5.710365 17.132296 17.132004
268   0  1  5.710019 17.132635 19.987642
269   0  1  5.709856 17.132775 22.842764
270   0  1  5.709673 17.132961 25.697764
271   0  1  5.707912 19.989896 28.552144
272   0  1  5.707787 19.990021  2.853369
273   0  1  5.708021 19.989787  5.708021
274   0  1  5.709414 19.988394  8.564455
275   0  1  5.710117 19.987691 11.420455
276   0  1  5.710405 19.987403 14.276161
277   0  1  5.710161 19.987647 17.132033
278   0  1  5.708815 19.988993 19.988711
279   0  1  5.708583 19.989225 22.843268
280   0  1  5.708237 19.989571 25.697814
281   0  1  5.707953 22.844854 28.551626
282   0  1  5.707770 22.844718  2.853090
283   0  1  5.707787 22.844439  5.707787
284   0  1  5.709334 22.843424  8.564429
285   0  1  5.710147 22.842881 11.420501
286   0  1  5.710471 22.842644 14.276145
287   0  1  5.710355 22.842578 17.131773
288   0  1  5.709676 22.842584 19.987702
289   0  1  5.708725 22.844044 22.843717
290   0  1  5.708571 22.844371 25.697749
291   0  1  5.709904 25.698361 28.552567
292   0  1  5.707953 25.699302  2.852954
293   0  1  5.707912 25.698784  5.707912
294   0  1  5.709470 25.698273  8.564619
295   0  1  5.710244 25.698044 11.420653
296   0  1  5.710534 25.697956 14.276257
297   0  1  5.710447 25.697885 17.131799
298   0  1  5.710105 25.697570 19.987306
299   0  1  5.710395 25.697425 22.842069
300   0  1  5.710625 25.698359 25.697163
301   0  1  8.565908  0.000283 28.552826
302   0  1  8.565330  0.000117  2.854763
303   0  1  8.564847  0.000044  5.709673
304   0  1  8.565031  0.000050  8.565031
305   0  1  8.565575  0.000084 11.420817
306   0  1  8.565826  0.000091 14.276464
307   0  1  8.565874  0.000021 17.131875
308   0  1  8.566016 28.553066 19.987004
309   0  1  8.566159  0.000057 22.842158
310   0  1  8.566094  0.000303 25.697505
311   0  1  8.565890  2.855561  0.000004
312   0  1  8.565467  2.855180  2.854980
313   0  1  8.565033  2.855044  5.709856
314   0  1  8.565184  2.855145  8.565184
315   0  1  8.565657  2.855292 11.420934
316   0  1  8.565875  2.855365 14.276562
317   0  1  8.565968  2.855355 17.131933
318   0  1  8.566187  2.855369 19.987042
319   0  1  8.566366  2.855587 22.842221
320   0  1  8.566159  2.855650 25.697751
321   0  1  8.565788  5.710740  0.000121
322   0  1  8.565528  5.710523  2.855269
323   0  1  8.565173  5.710166  5.710019
324   0  1  8.565327  5.710329  8.565327
325   0  1  8.565707  5.710526 11.421027
326   0  1  8.565871  5.710603 14.276641
327   0  1  8.565969  5.710599 17.132008
328   0  1  8.566193  5.710681 19.987127
329   0  1  8.566187  5.710766 22.842439
330   0  1  8.566016  5.710804 25.697862
331   0  1  8.565755  8.565965  0.000006
332   0  1  8.565634  8.565932  2.855259
333   0  1  8.565512  8.565804  5.710365
334   0  1  8.565478  8.565690  8.565478
335   0  1  8.565720  8.565827 11.421088
336   0  1  8.565802  8.565819 14.276690
337   0  1  8.565833  8.565718 17.132090
338   0  1  8.565969  8.565800 19.987209
339   0  1  8.565968  8.565875 22.842453
340   0  1  8.565874  8.565933 25.697787
341   0  1  8.565758 11.421446 28.553000
342   0  1  8.565692 11.421517  2.855146
343   0  1  8.565645 11.421508  5.710382
344   0  1  8.565636 11.421401  8.565636
345   0  1  8.565709 11.421295 11.421102
346   0  1  8.565731 11.421151 14.276657
347   0  1  8.565802 11.421118 17.131989
348   0  1  8.565871 11.421167 19.987205
349   0  1  8.565875 11.421246 22.842443
350   0  1  8.565826 11.421344 25.697717
351   0  1  8.565478 14.277117 28.552911
352   0  1  8.565401 14.277214  2.854964
353   0  1  8.565387 14.277223  5.710163
354   0  1  8.565464 14.277094  8.565464
355   0  1  8.565611 14.276866 11.420942
356   0  1  8.565709 14.276706 14.276513
357   0  1  8.565720 14.276720 17.131981
358   0  1  8.565707 14.276781 19.987282
359   0  1  8.565657 14.276874 22.842516
360   0  1  8.565575 14.276991 25.697724
361   0  1  8.564879 17.132929 28.552786
362   0  1  8.564778 17.133030  2.854666
363   0  1  8.564820 17.132988  5.709753
364   0  1  8.565053 17.132755  8.565053
365   0  1  8.565464 17.132344 11.420714
366   0  1  8.565636 17.132172 14.276407
367   0  1  8.565478 17.132330 17.132118
368   0  1  8.565327 17.132481 19.987479
369   0  1  8.565184 17.132624 22.842663
370   0  1  8.565031 17.132777 25.697758
371   0  1  8.564619 19.988338 28.552655
372   0  1  8.564429 19.988474  2.854384
373   0  1  8.564455 19.988394  5.709414
374   0  1  8.564820 19.988055  8.564820
375   0  1  8.565387 19.987645 11.420585
376   0  1  8.565645 19.987426 14.276300
377   0  1  8.565512 19.987443 17.132004
378   0  1  8.565173 19.987789 19.987642
379   0  1  8.565033 19.987952 22.842764
380   0  1  8.564847 19.988135 25.697764
381   0  1  8.565028 22.843267 28.552605
382   0  1  8.564712 22.843361  2.854447
383   0  1  8.564429 22.843424  5.709334
384   0  1  8.564778 22.843142  8.564778
385   0  1  8.565401 22.842844 11.420594
386   0  1  8.565692 22.842662 14.276291
387   0  1  8.565634 22.842549 17.131876
388   0  1  8.565528 22.842539 19.987285
389   0  1  8.565467 22.842828 22.842628
390   0  1  8.565330 22.843045 25.697691
391   0  1  8.565596 25.698202 28.552726
392   0  1  8.565028 25.698323  2.854541
393   0  1  8.564619 25.698273  5.709470
394   0  1  8.564879 25.698142  8.564879
395   0  1  8.565478 25.698017 11.420691
396   0  1  8.565758 25.697928 14.276362
397   0  1  8.565755 25.697802 17.131843
398   0  1  8.565788 25.697687 19.987068
399   0  1  8.565890 25.697804 22.842247
400   0  1  8.565908 25.698102 25.697525
401   0  1 11.421160  0.000140 28.553034
402   0  1 11.420991  0.000137  2.855177
403   0  1 11.420816  0.000113  5.710345
404   0  1 11.420817  0.000084  8.565575
405   0  1 11.421060  0.000058 11.421060
406   0  1 11.421333  0.000025 14.276617
407   0  1 11.421453 28.553104 17.131952
408   0  1 11.421438 28.553088 19.987143
409   0  1 11.421348  0.000018 22.842388
410   0  1 11.421247  0.000099 25.697709
411   0  1 11.421221  2.855445 28.553107
412   0  1 11.421096  2.855391  2.855233
413   0  1 11.420945  2.855327  5.710407
414   0  1 11.420934  2.855292  8.565657
415   0  1 11.421151  2.855276 11.421151
416   0  1 11.421425  2.855254 14.276699
417   0  1 11.421583  2.855233 17.132025
418   0  1 11.421599  2.855256 19.987220
419   0  1 11.421498  2.855344 22.842464
420   0  1 11.421348  2.855420 25.697790
421   0  1 11.421289  5.710695  0.000008
422   0  1 11.421162  5.710652  2.855248
423   0  1 11.421040  5.710561  5.710424
424   0  1 11.421027  5.710526  8.565707
425   0  1 11.421211  5.710514 11.421211
426   0  1 11.421472  5.710485 14.276751
427   0  1 11.421656  5.710464 17.132086
428   0  1 11.421704  5.710517 19.987291
429   0  1 11.421599  5.710588 22.842552
430   0  1 11.421438  5.710665 25.697840
431   0  1 11.421321  8.565911 28.553083
432   0  1 11.421212  8.565922  2.855206
433   0  1 11.421128  8.565882  5.710431
434   0  1 11.421088  8.565827  8.565720
435   0  1 11.421220  8.565807 11.421220
436   0  1 11.421434  8.565751 14.276750
437   0  1 11.421604  8.565707 17.132101
438   0  1 11.421656  8.565722 19.987344
439   0  1 11.421583  8.565783 22.842575
440   0  1 11.421453  8.565856 25.697824
441   0  1 11.421233 11.421275 28.553017
442   0  1 11.421150 11.421335  2.855134
443   0  1 11.421101 11.421345  5.710389
444   0  1 11.421102 11.421295  8.565709
445   0  1 11.421172 11.421216 11.421172
446   0  1 11.421311 11.421118 14.276690
447   0  1 11.421434 11.421058 17.132057
448   0  1 11.421472 11.421057 19.987323
449   0  1 11.421425 11.421109 22.842554
450   0  1 11.421333 11.421191 25.697783
451   0  1 11.420964 14.276844 28.552960
452   0  1 11.420892 14.276916  2.855050
453   0  1 11.420877 14.276931  5.710288
454   0  1 11.420942 14.276866  8.565611
455   0  1 11.421066 14.276742 11.421066
456   0  1 11.421172 14.276636 14.276592
457   0  1 11.421220 14.276588 17.132001
458   0  1 11.421211 14.276597 19.987294
459   0  1 11.421151 14.276657 22.842532
460   0  1 11.421060 14.276748 25.697750
461   0  1 11.420691 17.132330 28.552911
462   0  1 11.420594 17.132407  2.854964
463   0  1 11.420585 17.132421  5.710163
464   0  1 11.420714 17.132344  8.565464
465   0  1 11.420942 17.132197 11.420942
466   0  1 11.421102 17.132099 14.276513
467   0  1 11.421088 17.132088 17.131981
468   0  1 11.421027 17.132101 19.987282
469   0  1 11.420934 17.132151 22.842516
470   0  1 11.420817 17.132233 25.697724
471   0  1 11.420653 19.987564 28.552884
472   0  1 11.420501 19.987661  2.854927
473   0  1 11.420455 19.987691  5.710117
474   0  1 11.420585 19.987645  8.565387
475   0  1 11.420877 19.987520 11.420877
476   0  1 11.421101 19.987419 14.276463
477   0  1 11.421128 19.987377 17.131926
478   0  1 11.421040 19.987384 19.987247
479   0  1 11.420945 19.987401 22.842481
480   0  1 11.420816 19.987463 25.697695
481   0  1 11.420821 22.842728 28.552902
482   0  1 11.420627 22.842817  2.854991
483   0  1 11.420501 22.842881  5.710147
484   0  1 11.420594 22.842844  8.565401
485   0  1 11.420892 22.842758 11.420892
486   0  1 11.421150 22.842674 14.276473
487   0  1 11.421212 22.842602 17.131886
488   0  1 11.421162 22.842560 19.987156
489   0  1 11.421096 22.842575 22.842417
490   0  1 11.420991 22.842631 25.697671
491   0  1 11.421023 25.697962 28.552966
492   0  1 11.420821 25.698026  2.855080
493   0  1 11.420653 25.698044  5.710244
494   0  1 11.420691 25.698017  8.565478
495   0  1 11.420964 25.697968 11.420964
496   0  1 11.421233 25.697911 14.276533
497   0  1 11.421321 25.697845 17.131897
498   0  1 11.421289 25.697800 19.987113
499   0  1 11.421221 25.697821 22.842363
500   0  1 11.421160 25.697894 25.697668
501   0  1 14.276387  0.000030  0.000092
502   0  1 14.276372  0.000170  2.855376
503   0  1 14.276413  0.000174  5.710565
504   0  1 14.276464  0.000091  8.565826
505   0  1 14.276617  0.000025 11.421333
506   0  1 14.276991 28.553108 14.276991
507   0  1 14.277244 28.553074 17.132428
508   0  1 14.277075 28.553043 19.987540
509   0  1 14.276713 28.553022 22.842649
510   0  1 14.276465 28.553039 25.697889
511   0  1 14.276570  2.855299 28.553117
512   0  1 14.276562  2.855450  2.855280
513   0  1 14.276564  2.855461  5.710533
514   0  1 14.276562  2.855365  8.565875
515   0  1 14.276699  2.855254 11.421425
516   0  1 14.277094  2.855132 14.277094
517   0  1 14.277400  2.855015 17.132555
518   0  1 14.277305  2.854972 19.987693
519   0  1 14.276978  2.855064 22.842744
520   0  1 14.276713  2.855159 25.697906
521   0  1 14.276904  5.710409 28.552996
522   0  1 14.276808  5.710511  2.855067
523   0  1 14.276710  5.710630  5.710420
524   0  1 14.276641  5.710603  8.565871
525   0  1 14.276751  5.710485 11.421472
526   0  1 14.277139  5.710286 14.277139
527   0  1 14.277481  5.710084 17.132611
528   0  1 14.277473  5.710054 19.987754
529   0  1 14.277305  5.710115 22.842836
530   0  1 14.277075  5.710268 25.697885
531   0  1 14.277086  8.565511 28.552964
532   0  1 14.276954  8.565615  2.855012
533   0  1 14.276840  8.565701  5.710272
534   0  1 14.276690  8.565819  8.565802
535   0  1 14.276750  8.565751 11.421434
536   0  1 14.277075  8.565522 14.277075
537   0  1 14.277385  8.565284 17.132524
538   0  1 14.277481  8.565197 19.987724
539   0  1 14.277400  8.565253 22.842793
540   0  1 14.277244  8.565380 25.697854
541   0  1 14.276875 11.420933 28.552989
542   0  1 14.276774 11.421034  2.855072
543   0  1 14.276700 11.421108  5.710335
544   0  1 14.276657 11.421151  8.565731
545   0  1 14.276690 11.421118 11.421311
546   0  1 14.276895 11.420913 14.276895
547   0  1 14.277075 11.420733 17.132286
548   0  1 14.277139 11.420669 19.987522
549   0  1 14.277094 11.420714 22.842676
550   0  1 14.276991 11.420817 25.697820
551   0  1 14.276533 14.276575 28.553017
552   0  1 14.276473 14.276658  2.855134
553   0  1 14.276463 14.276707  5.710389
554   0  1 14.276513 14.276706  8.565709
555   0  1 14.276592 14.276636 11.421172
556   0  1 14.276690 14.276497 14.276690
557   0  1 14.276750 14.276374 17.132057
558   0  1 14.276751 14.276336 19.987323
559   0  1 14.276699 14.276383 22.842554
560   0  1 14.276617 14.276475 25.697783
561   0  1 14.276362 17.132050 28.553000
562   0  1 14.276291 17.132116  2.855146
563   0  1 14.276300 17.132163  5.710382
564   0  1 14.276407 17.132172  8.565636
565   0  1 14.276513 17.132099 11.421102
566   0  1 14.276657 17.132077 14.276657
567   0  1 14.276690 17.132006 17.131989
568   0  1 14.276641 17.131937 19.987205
569   0  1 14.276562 17.131933 22.842443
570   0  1 14.276464 17.131982 25.697717
571   0  1 14.276257 19.987274 28.552972
572   0  1 14.276145 19.987337  2.855164
573   0  1 14.276161 19.987403  5.710405
574   0  1 14.276300 19.987426  8.565645
575   0  1 14.276463 19.987419 11.421101
576   0  1 14.276700 19.987473 14.276700
577   0  1 14.276840 19.987536 17.132107
578   0  1 14.276710 19.987388 19.987178
579   0  1 14.276564 19.987275 22.842347
580   0  1 14.276413 19.987243 25.697634
581   0  1 14.276196 22.842458 28.553019
582   0  1 14.276067 22.842532  2.855276
583   0  1 14.276145 22.842644  5.710471
584   0  1 14.276291 22.842662  8.565692
585   0  1 14.276473 22.842674 11.421150
586   0  1 14.276774 22.842736 14.276774
587   0  1 14.276954 22.842796 17.132193
588   0  1 14.276808 22.842741 19.987297
589   0  1 14.276562 22.842528 22.842358
590   0  1 14.276372 22.842432 25.697638
591   0  1 14.276254 25.697771  0.000037
592   0  1 14.276196 25.697909  2.855350
593   0  1 14.276257 25.697956  5.710534
594   0  1 14.276362 25.697928  8.565758
595   0  1 14.276533 25.697911 11.421233
596   0  1 14.276875 25.697939 14.276875
597   0  1 14.277086 25.697964 17.132297
598   0  1 14.276904 25.697932 19.987399
599   0  1 14.276570 25.697811 22.842509
600   0  1 14.276387 25.697716 25.697778
601   0  1 17.131521  0.000012  0.000385
602   0  1 17.131736  0.000323  2.855490
603   0  1 17.131956  0.000192  5.710477
604   0  1 17.131875  0.000021  8.565874
605   0  1 17.131952 28.553104 11.421453
606   0  1 17.132428 28.553074 14.277244
607   0  1 17.133330 28.552984 17.133330
608   0  1 17.133429 28.552858 19.988575
609   0  1 17.132469 28.552767 22.843182
610   0  1 17.131582 28.552814 25.698114
611   0  1 17.132134  2.854994 28.553026
612   0  1 17.132178  2.855551  2.855166
613   0  1 17.132151  2.855508  5.710408
614   0  1 17.131933  2.855355  8.565968
615   0  1 17.132025  2.855233 11.421583
616   0  1 17.132555  2.855015 14.277400
617   0  1 17.133518  2.854611 17.133518
618   0  1 17.133793  2.854236 19.988851
619   0  1 17.132952  2.854563 22.843245
620   0  1 17.132469  2.854626 25.698161
621   0  1 17.133128  5.709532 28.552709
622   0  1 17.132992  5.709767  2.854362
623   0  1 17.132393  5.710506  5.710164
624   0  1 17.132008  5.710599  8.565969
625   0  1 17.132086  5.710464 11.421656
626   0  1 17.132611  5.710084 14.277481
627   0  1 17.133530  5.709434 17.133530
628   0  1 17.133876  5.709023 19.988785
629   0  1 17.133793  5.708957 22.843572
630   0  1 17.133429  5.709233 25.698070
631   0  1 17.133104  8.564704 28.552787
632   0  1 17.132880  8.564928  2.854651
633   0  1 17.132629  8.565179  5.709839
634   0  1 17.132090  8.565718  8.565833
635   0  1 17.132101  8.565707 11.421604
636   0  1 17.132524  8.565284 14.277385
637   0  1 17.133266  8.564542 17.133266
638   0  1 17.133530  8.564278 19.988374
639   0  1 17.133518  8.564290 22.843197
640   0  1 17.133330  8.564478 25.697944
641   0  1 17.132297 11.420722 28.552964
642   0  1 17.132193 11.420854  2.855012
643   0  1 17.132107 11.420968  5.710272
644   0  1 17.131989 11.421118  8.565802
645   0  1 17.132057 11.421058 11.421434
646   0  1 17.132286 11.420733 14.277075
647   0  1 17.132524 11.420423 17.132524
648   0  1 17.132611 11.420327 19.987724
649   0  1 17.132555 11.420408 22.842793
650   0  1 17.132428 11.420564 25.697854
651   0  1 17.131897 14.276487 28.553083
652   0  1 17.131886 14.276596  2.855206
653   0  1 17.131926 14.276680  5.710431
654   0  1 17.131981 14.276720  8.565720
655   0  1 17.132001 14.276588 11.421220
656   0  1 17.132057 14.276374 14.276750
657   0  1 17.132101 14.276204 17.132101
658   0  1 17.132086 14.276152 19.987344
659   0  1 17.132025 14.276225 22.842575
660   0  1 17.131952 14.276355 25.697824
661   0  1 17.131843 17.132053  0.000006
662   0  1 17.131876 17.132174  2.855259
663   0  1 17.132004 17.132296  5.710365
664   0  1 17.132118 17.132330  8.565478
665   0  1 17.131981 17.132088 11.421088
666   0  1 17.131989 17.132006 14.276690
667   0  1 17.132090 17.131975 17.132090
668   0  1 17.132008 17.131839 19.987209
669   0  1 17.131933 17.131840 22.842453
670   0  1 17.131875 17.131934 25.697787
671   0  1 17.131799 19.987361 28.553043
672   0  1 17.131773 19.987453  2.855230
673   0  1 17.132033 19.987647  5.710161
674   0  1 17.132004 19.987443  8.565512
675   0  1 17.131926 19.987377 11.421128
676   0  1 17.132107 19.987536 14.276840
677   0  1 17.132629 19.987969 17.132629
678   0  1 17.132393 19.987644 19.987302
679   0  1 17.132151 19.987400 22.842300
680   0  1 17.131956 19.987331 25.697616
681   0  1 17.131397 22.842295 28.553023
682   0  1 17.131267 22.842355  2.855453
683   0  1 17.131773 22.842578  5.710355
684   0  1 17.131876 22.842549  8.565634
685   0  1 17.131886 22.842602 11.421212
686   0  1 17.132193 22.842796 14.276954
687   0  1 17.132880 22.843157 17.132880
688   0  1 17.132992 22.843446 19.988041
689   0  1 17.132178 22.842642 22.842257
690   0  1 17.131736 22.842318 25.697485
691   0  1 17.131094 25.697428  0.000380
692   0  1 17.131397 25.697905  2.855513
693   0  1 17.131799 25.697885  5.710447
694   0  1 17.131843 25.697802  8.565755
695   0  1 17.131897 25.697845 11.421321
696   0  1 17.132297 25.697964 14.277086
697   0  1 17.133104 25.698141 17.133104
698   0  1 17.133128 25.698219 19.988276
699   0  1 17.132134 25.697902 22.842814
700   0  1 17.131521 25.697423 25.697796
701   0  1 19.986446  0.001024  0.001227
702   0  1 19.987547  0.000595  2.855145
703   0  1 19.987230 28.553060  5.710462
704   0  1 19.987004 28.553066  8.566016
705   0  1 19.987143 28.553088 11.421438
706   0  1 19.987540 28.553043 14.277075
707   0  1 19.988575 28.552858 17.133429
708   0  1 19.991312 28.552328 19.991312
709   0  1 19.990232 28.551616 22.845336
710   0  1 19.984573 28.552747 25.698181
711   0  1 19.989620  2.853356 28.551858
712   0  1 19.988272  2.856084  2.854707
713   0  1 19.987329  2.855414  5.710614
714   0  1 19.987042  2.855369  8.566187
715   0  1 19.987220  2.855256 11.421599
716   0  1 19.987693  2.854972 14.277305
717   0  1 19.988851  2.854236 17.133793
718   0  1 19.991705  2.852586 19.991705
719   0  1 19.990224  2.853374 22.844434
720   0  1 19.990232  2.852472 25.699312
721   0  1 19.990741  5.707067 28.552262
722   0  1 19.991030  5.706778  2.851665
723   0  1 19.987725  5.710083  5.710126
724   0  1 19.987127  5.710681  8.566193
725   0  1 19.987291  5.710517 11.421704