Generated by pymatgen.io.lammps.data.LammpsData

1268  atoms

   1  atom types

0.000000 57.106000  xlo xhi
0.000000 57.106000  ylo yhi
0.000000 57.106000  zlo zhi
0.000000 0.000000 0.000000  xy xz yz

Masses

1  55.847

Atoms

4380   1  1 15.704430 27.124773 27.126282
4382   1  1 15.703962 27.124514 29.981777
4418   1  1 15.704803 29.980599 24.270985
4420   1  1 15.704739 29.980562 27.126439
4422   1  1 15.704240 29.980600 29.981722
4460   1  1 15.704570 32.836348 27.126201
4462   1  1 15.704072 32.836643 29.981642
5136   1  1 18.558423 24.268598 21.414675
5138   1  1 18.558289 24.268156 24.270371
5140   1  1 18.557940 24.267592 27.126175
5142   1  1 18.557246 24.266884 29.982436
5144   1  1 18.556169 24.266470 32.839131
5176   1  1 18.559154 27.124672 21.415302
5177   1  1 17.131638 25.697044 22.842839
5178   1  1 18.559447 27.124509 24.271024
5179   1  1 17.131620 25.696699 25.698447
5180   1  1 18.559236 27.124095 27.126762
5181   1  1 17.131249 25.696214 28.554170
5182   1  1 18.558380 27.123447 29.982788
5183   1  1 17.130475 25.695827 31.410113
5184   1  1 18.557111 27.123582 32.838692
5186   1  1 18.556146 27.124189 35.694505
5216   1  1 18.559720 29.980543 21.415532
5217   1  1 17.132243 28.552803 22.843223
5218   1  1 18.560201 29.980265 24.271127
5219   1  1 17.132355 28.552646 25.698877
5220   1  1 18.560031 29.980153 27.126984
5221   1  1 17.131955 28.552343 28.554432
5222   1  1 18.559012 29.980331 29.982572
5223   1  1 17.131097 28.552341 31.409886
5224   1  1 18.557583 29.980629 32.838323
5226   1  1 18.556447 29.980760 35.694241
5256   1  1 18.559577 32.836296 21.415504
5257   1  1 17.132374 31.408333 22.843289
5258   1  1 18.560087 32.836029 24.271136
5259   1  1 17.132538 31.408248 25.698816
5260   1  1 18.559870 32.836237 27.126444
5261   1  1 17.132103 31.408526 28.554255
5262   1  1 18.558840 32.837016 29.982184
5263   1  1 17.131189 31.408810 31.409753
5264   1  1 18.557414 32.837450 32.838288
5266   1  1 18.556368 32.837216 35.694261
5296   1  1 18.558973 35.692264 21.414885
5297   1  1 17.131975 34.264014 22.842953
5298   1  1 18.559019 35.692462 24.270496
5299   1  1 17.131978 34.264234 25.698380
5300   1  1 18.558720 35.692769 27.125890
5301   1  1 17.131587 34.264678 28.553895
5302   1  1 18.557921 35.693450 29.981964
5303   1  1 17.130706 34.265139 31.409794
5304   1  1 18.556689 35.694068 32.838462
5338   1  1 18.557854 38.548709 24.269699
5340   1  1 18.557451 38.549076 27.125552
5341   1  1 17.130549 37.120788 28.553627
5342   1  1 18.556867 38.549584 29.981738
5344   1  1 18.556148 38.550131 32.838368
5896   1  1 21.411648 21.410508 21.413721
5898   1  1 21.411025 21.409646 24.269715
5900   1  1 21.410271 21.409002 27.125909
5902   1  1 21.409351 21.408267 29.982778
5904   1  1 21.408295 21.407485 32.840761
5936   1  1 21.411929 24.266333 21.414939
5937   1  1 19.984693 22.839152 22.842078
5938   1  1 21.411641 24.265862 24.270792
5939   1  1 19.984171 22.838460 25.697965
5940   1  1 21.410997 24.265190 27.126634
5941   1  1 19.983477 22.837723 28.554247
5942   1  1 21.409746 24.263953 29.983588
5943   1  1 19.982497 22.836881 31.411343
5944   1  1 21.407573 24.262434 32.842482
5946   1  1 21.408413 24.264759 35.697447
5974   1  1 21.412734 27.123772 18.558448
5975   1  1 19.985538 25.696064 19.987047
5976   1  1 21.412825 27.122384 21.414246
5977   1  1 19.985872 25.695747 22.843085
5978   1  1 21.413841 27.123245 24.271211
5979   1  1 19.985780 25.695441 25.698799
5980   1  1 21.413335 27.122728 27.127340
5981   1  1 19.985064 25.694575 28.554879
5982   1  1 21.411112 27.120761 29.985112
5983   1  1 19.983544 25.693484 31.412000
5984   1  1 21.408936 27.121443 32.841897
5985   1  1 19.982406 25.694244 34.268226
5986   1  1 21.409191 27.122931 35.696705
5987   1  1 19.982829 25.695615 37.123088
5988   1  1 21.411303 27.124079 38.549904
6014   1  1 21.413340 29.980759 18.559009
6015   1  1 19.986508 28.552408 19.987442
6016   1  1 21.414217 29.979939 21.414719
6017   1  1 19.987203 28.551948 22.843047
6018   1  1 21.415744 29.979102 24.270673
6019   1  1 19.987431 28.552006 25.699190
6020   1  1 21.415289 29.978915 27.128119
6021   1  1 19.986550 28.551302 28.555538
6022   1  1 21.412632 29.979527 29.984487
6023   1  1 19.984709 28.551386 31.411608
6024   1  1 21.409977 29.980428 32.841005
6025   1  1 19.983156 28.551977 34.267631
6026   1  1 21.409755 29.980801 35.696132
6027   1  1 19.983246 28.552442 37.122667
6028   1  1 21.411516 29.980729 38.549624
6054   1  1 21.413379 32.837323 18.559128
6055   1  1 19.986784 31.408658 19.987678
6056   1  1 21.414217 32.836962 21.415320
6057   1  1 19.987713 31.408136 22.843378
6058   1  1 21.415727 32.835343 24.271538
6059   1  1 19.988214 31.407483 25.699121
6060   1  1 21.415285 32.835485 27.126670
6061   1  1 19.987072 31.408237 28.554974
6062   1  1 21.412736 32.837521 29.983342
6063   1  1 19.985107 31.409078 31.411065
6064   1  1 21.410261 32.838590 32.840410
6065   1  1 19.983457 31.409383 34.267265
6066   1  1 21.409937 32.838242 35.695866
6067   1  1 19.983378 31.409126 37.122512
6068   1  1 21.411475 32.837277 38.549671
6094   1  1 21.413103 35.693247 18.558835
6095   1  1 19.986365 34.264640 19.987452
6096   1  1 21.413389 35.693435 21.415111
6097   1  1 19.987102 34.264323 22.843433
6098   1  1 21.413952 35.692830 24.270916
6099   1  1 19.987232 34.264146 25.698661
6100   1  1 21.413577 35.693015 27.126136
6101   1  1 19.986381 34.264912 28.554104
6102   1  1 21.412106 35.694268 29.982416
6103   1  1 19.984689 34.266134 31.410697
6104   1  1 21.410140 35.695639 32.839954
6105   1  1 19.983206 34.266530 34.267305
6106   1  1 21.409675 35.695402 35.696085
6107   1  1 19.983222 34.265700 37.122684
6108   1  1 21.411197 35.693838 38.550012
6136   1  1 21.412733 38.549198 21.414029
6137   1  1 19.985759 37.120986 22.842352
6138   1  1 21.412992 38.549132 24.270128
6139   1  1 19.985735 37.121010 25.698078
6140   1  1 21.412563 38.549368 27.125799
6141   1  1 19.985124 37.121491 28.553798
6142   1  1 21.411662 38.550050 29.981942
6143   1  1 19.983998 37.122369 31.410346
6144   1  1 21.410438 38.550980 32.839103
6145   1  1 19.982585 37.123048 34.267616
6146   1  1 21.409546 38.551454 35.696172
6177   1  1 19.985143 39.976819 22.841558
6178   1  1 21.412690 41.404409 24.269599
6179   1  1 19.984728 39.977108 25.697565
6180   1  1 21.412293 41.404621 27.125485
6181   1  1 19.984170 39.977520 28.553547
6182   1  1 21.411711 41.405026 29.981599
6183   1  1 19.983509 39.978073 31.409989
6184   1  1 21.411062 41.405618 32.838267
6185   1  1 19.982941 39.978612 34.267027
6658   1  1 24.268266 18.555878 24.269575
6660   1  1 24.267787 18.555825 27.125762
6662   1  1 24.267072 18.555415 29.982333
6664   1  1 24.266479 18.554617 32.839337
6696   1  1 24.267099 21.409264 21.413955
6697   1  1 22.839708 19.982568 22.841529
6698   1  1 24.266920 21.409239 24.270235
6699   1  1 22.839113 19.982214 25.697665
6700   1  1 24.266166 21.408910 27.126316
6701   1  1 22.838325 19.981764 28.554115
6702   1  1 24.264752 21.407953 29.983474
6703   1  1 22.837323 19.981042 31.411355
6704   1  1 24.262931 21.405964 32.842652
6706   1  1 24.264803 21.406962 35.697873
6732   1  1 24.268047 24.267107 15.700950
6734   1  1 24.261955 24.260201 18.551707
6735   1  1 22.838547 22.836910 19.986227
6736   1  1 24.263704 24.261380 21.413988
6737   1  1 22.838082 22.836258 22.842548
6738   1  1 24.264046 24.261947 24.271138
6739   1  1 22.837466 22.835785 25.698457
6740   1  1 24.263147 24.261407 27.126873
6741   1  1 22.836446 22.834998 28.554908
6742   1  1 24.260775 24.259398 29.985281
6743   1  1 22.834776 22.833560 31.413190
6744   1  1 24.256556 24.255548 32.849472
6745   1  1 22.833305 22.832362 34.272519
6746   1  1 24.263193 24.262561 35.698598
6747   1  1 22.837039 22.836588 37.124467
6748   1  1 24.266609 24.266381 38.550037
6772   1  1 24.268634 27.123968 15.701904
6773   1  1 22.839317 25.695105 17.128186
6774   1  1 24.261962 27.119906 18.551370
6775   1  1 22.837207 25.691473 19.983932
6776   1  1 24.261086 27.114055 21.407044
6777   1  1 22.838944 25.692833 22.843329
6778   1  1 24.267259 27.120852 24.271988
6779   1  1 22.838760 25.692998 25.699141
6780   1  1 24.266364 27.120304 27.127045
6781   1  1 22.837345 25.691493 28.555559
6782   1  1 24.258120 27.112234 29.993004
6783   1  1 22.833134 25.687989 31.416930
6784   1  1 24.257469 27.117496 32.848932
6785   1  1 22.833699 25.691055 34.272231
6786   1  1 24.263711 27.121457 35.697573
6787   1  1 22.837493 25.694199 37.123707
6788   1  1 24.266878 27.123430 38.549316
6789   1  1 22.839888 25.696027 39.976655
6790   1  1 24.268530 27.124470 41.402976
6812   1  1 24.269060 29.980777 15.702711
6813   1  1 22.839713 28.552390 17.129358
6814   1  1 24.263694 29.980981 18.553253
6815   1  1 22.838510 28.550524 19.984082
6816   1  1 24.264670 29.978502 21.409133
6817   1  1 22.840965 28.548892 22.840726
6818   1  1 24.270715 29.975155 24.266864
6819   1  1 22.842367 28.550960 25.699486
6820   1  1 24.269910 29.974900 27.132355
6821   1  1 22.839586 28.548100 28.558622
6822   1  1 24.262193 29.977894 29.990565
6823   1  1 22.835373 28.549195 31.416038
6824   1  1 24.259737 29.980320 32.846726
6825   1  1 22.834916 28.550970 34.271117
6826   1  1 24.264515 29.980328 35.696666
6827   1  1 22.837982 28.551896 37.123100
6828   1  1 24.267147 29.980468 38.548940
6829   1  1 22.840111 28.552439 39.976211
6830   1  1 24.268624 29.980580 41.402782
6852   1  1 24.269078 32.837178 15.702773
6853   1  1 22.840146 31.409501 17.129901
6854   1  1 24.264801 32.839981 18.554503
6855   1  1 22.839508 31.409562 19.985195
6856   1  1 24.265680 32.839517 21.411740
6857   1  1 22.842341 31.407634 22.842219
6858   1  1 24.270452 32.834675 24.271402
6859   1  1 22.844621 31.404962 25.699392
6860   1  1 24.269773 32.834718 27.127199
6861   1  1 22.841101 31.407587 28.556811
6862   1  1 24.263522 32.839796 29.987387
6863   1  1 22.836716 31.409680 31.414480
6864   1  1 24.261235 32.840707 32.845062
6865   1  1 22.835789 31.410030 34.270199
6866   1  1 24.264959 32.838408 35.696347
6867   1  1 22.838263 31.409300 37.122802
6868   1  1 24.267178 32.837311 38.549030
6869   1  1 22.840154 31.408808 39.976146
6870   1  1 24.268548 32.836700 41.402913
6892   1  1 24.268877 35.693117 15.702366
6893   1  1 22.840237 34.265945 17.129973
6894   1  1 24.266297 35.696209 18.556016
6895   1  1 22.839640 34.266909 19.985901
6896   1  1 24.266971 35.695727 21.413710
6897   1  1 22.841552 34.265081 22.843474
6898   1  1 24.268761 35.693591 24.271139
6899   1  1 22.842238 34.263929 25.698917
6900   1  1 24.268223 35.693698 27.126339
6901   1  1 22.840492 34.265419 28.554658
6902   1  1 24.265153 35.696316 29.984404
6903   1  1 22.837131 34.268000 31.413128
6904   1  1 24.262976 35.697917 32.843063
6905   1  1 22.836213 34.268051 34.269662
6906   1  1 24.265188 35.695636 35.696401
6907   1  1 22.838234 34.266384 37.122881
6908   1  1 24.267073 35.693961 38.549470
6909   1  1 22.839966 34.265164 39.976405
6910   1  1 24.268392 35.692802 41.403325
6934   1  1 24.268198 38.549749 18.557685
6935   1  1 22.840217 37.122301 19.986283
6936   1  1 24.269033 38.548940 21.414557
6937   1  1 22.840840 37.121604 22.842825
6938   1  1 24.269549 38.548039 24.270437
6939   1  1 22.840917 37.121259 25.698338
6940   1  1 24.269162 38.548027 27.125818
6941   1  1 22.839955 37.121935 28.554025
6942   1  1 24.267621 38.549258 29.982199
6943   1  1 22.838025 37.123543 31.411458
6944   1  1 24.265834 38.550946 32.839866
6945   1  1 22.836827 37.124367 34.268882
6946   1  1 24.265951 38.551122 35.695853
6947   1  1 22.837991 37.123189 37.123365
6948   1  1 24.267201 38.550262 38.550095
6949   1  1 22.839752 37.121504 39.976897
6975   1  1 22.840747 39.976940 19.986084
6976   1  1 24.268478 41.404701 21.413893
6977   1  1 22.840747 39.976669 22.841907
6978   1  1 24.268493 41.404118 24.269896
6979   1  1 22.840811 39.976380 25.697833
6980   1  1 24.268143 41.404134 27.125562
6981   1  1 22.840165 39.976753 28.553613
6982   1  1 24.267383 41.404624 29.981648
6983   1  1 22.839061 39.977634 31.410234
6984   1  1 24.266501 41.405505 32.838600
6985   1  1 22.837938 39.978753 34.267613
6986   1  1 24.266598 41.406212 35.695261
6987   1  1 22.838543 39.978643 37.123144
7017   1  1 22.840782 42.831806 22.841726
7018   1  1 24.268948 44.258974 24.269744
7019   1  1 22.840514 42.831768 25.697557
7020   1  1 24.268695 44.258913 27.125446
7021   1  1 22.840126 42.831956 28.553447
7022   1  1 24.268357 44.259130 29.981390
7023   1  1 22.839613 42.832338 31.409684
7024   1  1 24.268015 44.259568 32.837565
7025   1  1 22.839328 42.832917 34.266266
7456   1  1 27.124468 18.556095 21.413194
7458   1  1 27.124649 18.556685 24.269598
7459   1  1 25.696658 17.129356 25.697647
7460   1  1 27.124329 18.556855 27.125914
7461   1  1 25.696239 17.129295 28.553787
7462   1  1 27.123578 18.556331 29.982473
7464   1  1 27.123502 18.555312 32.838979
7494   1  1 27.123731 21.408740 18.555736
7495   1  1 25.695667 19.982547 19.984781
7496   1  1 27.122999 21.409287 21.412228
7497   1  1 25.696077 19.982949 22.841696
7498   1  1 27.124048 21.410791 24.269908
7499   1  1 25.695965 19.983239 25.697983
7500   1  1 27.123394 21.410798 27.126544
7501   1  1 25.695033 19.982876 28.554460
7502   1  1 27.121145 21.409004 29.984760
7503   1  1 25.693767 19.981651 31.411989
7504   1  1 27.121498 21.407153 32.841990
7505   1  1 25.694164 19.980651 34.268746
7506   1  1 27.122701 21.407802 35.696982
7508   1  1 27.123880 21.410572 38.550043
7532   1  1 27.124872 24.266047 15.700944
7533   1  1 25.695245 22.836616 17.127146
7534   1  1 27.121309 24.258617 18.550154
7535   1  1 25.692144 22.833636 19.982188
7536   1  1 27.115567 24.257522 21.405721
7537   1  1 25.694225 22.835973 22.842426
7538   1  1 27.122393 24.264350 24.271174
7539   1  1 25.694289 22.836281 25.698598
7540   1  1 27.121461 24.264088 27.126520
7541   1  1 25.692497 22.835308 28.555259
7542   1  1 27.112888 24.256404 29.992740
7543   1  1 25.688636 22.831455 31.416890
7544   1  1 27.117737 24.256255 32.848837
7545   1  1 25.691307 22.832357 34.272380
7546   1  1 27.121351 24.262923 35.697554
7547   1  1 25.694089 22.836545 37.123891
7548   1  1 27.123199 24.266500 38.549233
7549   1  1 25.695844 22.839488 39.976653
7550   1  1 27.124244 24.268402 41.402868
7570   1  1 27.125842 27.124782 12.848816
7571   1  1 25.697325 25.696275 14.275245
7572   1  1 27.124286 27.122513 15.702002
7573   1  1 25.693119 25.691092 17.125533
7574   1  1 27.117144 27.114767 18.548973
7575   1  1 25.678134 25.675657 19.967309
7576   1  1 27.081299 27.078827 21.368692
7577   1  1 25.689095 25.686625 22.844329
7578   1  1 27.119697 27.117511 24.283001
7579   1  1 25.689413 25.687401 25.699207
7580   1  1 27.118637 27.117071 27.115734
7581   1  1 25.687064 25.685579 28.554657
7582   1  1 27.078381 27.077581 30.030509
7583   1  1 25.674149 25.673185 31.432719
7584   1  1 27.113332 27.113010 32.850085
7585   1  1 25.688646 25.688103 34.273865
7586   1  1 27.120520 27.120574 35.696222
7587   1  1 25.693553 25.693355 37.123103
7588   1  1 27.122954 27.123205 38.548257
7589   1  1 25.695695 25.695699 39.975806
7590   1  1 27.124110 27.124401 41.402278
7610   1  1 27.126065 29.980529 12.849177
7611   1  1 25.697857 28.552508 14.275970
7612   1  1 27.124848 29.980025 15.703086
7613   1  1 25.694082 28.550786 17.127454
7614   1  1 27.119862 29.978943 18.552712
7615   1  1 25.682169 28.546385 19.970879
7616   1  1 27.098540 29.979784 21.384078
7617   1  1 25.686114 28.535598 22.827216
7618   1  1 27.117236 29.955567 24.238945
7619   1  1 25.699263 28.551936 25.699549
7620   1  1 27.116093 29.955258 27.160125
7621   1  1 25.684078 28.534748 28.572293
7622   1  1 27.095782 29.979127 30.015156
7623   1  1 25.678594 28.545038 31.428884
7624   1  1 27.116249 29.978227 32.846189
7625   1  1 25.689787 28.549334 34.271840
7626   1  1 27.121154 29.979404 35.694954
7627   1  1 25.693910 28.551229 37.122133
7628   1  1 27.123076 29.980109 38.547799
7629   1  1 25.695766 28.552167 39.975343
7630   1  1 27.124078 29.980463 41.402090
7631   1  1 25.696749 28.552641 42.829816
7650   1  1 27.125917 32.836200 12.848970
7651   1  1 25.697939 31.408545 14.276173
7652   1  1 27.124988 32.836933 15.702792
7653   1  1 25.695016 31.409490 17.128459
7654   1  1 27.121209 32.839838 18.553327
7655   1  1 25.686092 31.413116 19.975199
7656   1  1 27.106778 32.853227 21.394858
7657   1  1 25.690998 31.408571 22.835128
7658   1  1 27.113858 32.846748 24.262618
7659   1  1 25.698578 31.397578 25.699479
7660   1  1 27.112937 32.846774 27.135928
7661   1  1 25.689275 31.408392 28.564060
7662   1  1 27.104369 32.853332 30.003942
7663   1  1 25.682918 31.412953 31.424230
7664   1  1 27.117999 32.840124 32.845280
7665   1  1 25.691101 31.409528 34.270593
7666   1  1 27.121664 32.837481 35.695140
7667   1  1 25.694265 31.408831 37.121862
7668   1  1 27.123227 32.836860 38.548064
7669   1  1 25.695840 31.408646 39.975302
7670   1  1 27.124121 32.836551 41.402269
7671   1  1 25.696748 31.408530 42.829802
7691   1  1 25.697585 34.264420 14.275762
7692   1  1 27.124891 35.693088 15.702174
7693   1  1 25.695356 34.266839 17.128444
7694   1  1 27.123867 35.694375 18.555308
7695   1  1 25.689558 34.272622 19.978762
7696   1  1 27.126208 35.691842 21.413140
7697   1  1 25.692479 34.269782 22.839813
7698   1  1 27.130619 35.686890 24.271724
7699   1  1 25.695619 34.265717 25.699013
7700   1  1 27.129961 35.686932 27.125728
7701   1  1 25.691044 34.269986 28.558535
7702   1  1 27.124344 35.692128 29.984742
7703   1  1 25.686754 34.273302 31.420134
7704   1  1 27.121235 35.695179 32.842816
7705   1  1 25.691901 34.268036 34.270301
7706   1  1 27.122099 35.694504 35.695746
7707   1  1 25.694389 34.265997 37.122249
7708   1  1 27.123346 35.693435 38.548801
7709   1  1 25.695810 34.265038 39.975677
7710   1  1 27.124235 35.692568 41.402762
7711   1  1 25.696700 34.264406 42.830057
7732   1  1 27.123865 38.549590 15.701345
7733   1  1 25.696143 37.121820 17.129234
7734   1  1 27.121297 38.552573 18.554764
7735   1  1 25.696254 37.121961 19.985332
7736   1  1 27.122034 38.551486 21.412796
7737   1  1 25.698388 37.119519 22.843022
7738   1  1 27.123973 38.549042 24.270515
7739   1  1 25.699080 37.118323 25.698421
7740   1  1 27.123496 38.548959 27.125825
7741   1  1 25.697306 37.119645 28.554139
7742   1  1 27.120679 38.551510 29.983919
7743   1  1 25.694121 37.122599 31.412471
7744   1  1 27.119202 38.553391 32.842584
7745   1  1 25.693391 37.123439 34.268992
7746   1  1 27.121765 38.551352 35.696193
7747   1  1 25.694585 37.122533 37.122789
7748   1  1 27.123535 38.549896 38.549680
7749   1  1 25.695872 37.121307 39.976348
7775   1  1 25.695360 39.978247 19.985324
7776   1  1 27.124236 41.404930 21.413806
7777   1  1 25.696218 39.976970 22.842316
7778   1  1 27.124832 41.403750 24.270063
7779   1  1 25.696289 39.976373 25.697935
7780   1  1 27.124486 41.403569 27.125428
7781   1  1 25.695396 39.976836 28.553650
7782   1  1 27.123230 41.404488 29.981683
7783   1  1 25.693757 39.978358 31.411025
7784   1  1 27.122136 41.405939 32.839063
7785   1  1 25.693251 39.979359 34.268332
7786   1  1 27.122808 41.406255 35.695272
7787   1  1 25.694856 39.978593 37.123130
7817   1  1 25.696764 42.831686 22.841910
7818   1  1 27.125025 44.258559 24.269799
7819   1  1 25.696668 42.831271 25.697647
7820   1  1 27.124822 44.258354 27.125349
7821   1  1 25.696180 42.831402 28.553331
7822   1  1 27.124304 44.258658 29.981192
7823   1  1 25.695441 42.832046 31.409671
7824   1  1 27.123937 44.259341 32.837473
7825   1  1 25.695174 42.832892 34.266364
7861   1  1 25.696850 45.686073 28.553321
8256   1  1 29.980877 18.556261 21.412877
8257   1  1 28.552814 17.129506 22.841431
8258   1  1 29.980658 18.557298 24.269260
8259   1  1 28.552739 17.129911 25.697569
8260   1  1 29.980318 18.557534 27.125731
8261   1  1 28.552395 17.129861 28.553719
8262   1  1 29.980190 18.556905 29.981972
8263   1  1 28.552253 17.129294 31.409848
8264   1  1 29.980401 18.555823 32.838349
8292   1  1 29.981025 21.410365 15.700782
8294   1  1 29.981314 21.408421 18.555468
8295   1  1 28.552481 19.982479 19.984428
8296   1  1 29.980748 21.410061 21.411955
8297   1  1 28.552398 19.983866 22.840976
8298   1  1 29.979796 21.412377 24.268710
8299   1  1 28.552432 19.984596 25.697802
8300   1  1 29.979204 21.412589 27.126793
8301   1  1 28.551508 19.984177 28.554741
8302   1  1 29.979331 21.410514 29.983733
8303   1  1 28.551325 19.982709 31.411407
8304   1  1 29.979975 21.408356 32.840700
8305   1  1 28.551812 19.981510 34.267882
8306   1  1 29.980453 21.408627 35.696046
8307   1  1 28.552361 19.982220 37.122863
8308   1  1 29.980477 21.411047 38.549387
8331   1  1 28.553087 22.839612 14.274450
8332   1  1 29.981684 24.265516 15.700937
8333   1  1 28.553085 22.835660 17.126954
8334   1  1 29.982190 24.259591 18.551153
8335   1  1 28.551493 22.834293 19.981681
8336   1  1 29.979749 24.260639 21.407035
8337   1  1 28.549958 22.837347 22.838912
8338   1  1 29.976127 24.267397 24.265212
8339   1  1 28.551809 22.839441 25.698257
8340   1  1 29.975305 24.267443 27.131194
8341   1  1 28.548507 22.837299 28.557866
8342   1  1 29.977671 24.260495 29.989774
8343   1  1 28.549167 22.833616 31.415695
8344   1  1 29.979672 24.258690 32.846185
8345   1  1 28.550677 22.833627 34.271034
8346   1  1 29.979543 24.263992 35.696264
8347   1  1 28.551521 22.837235 37.122970
8348   1  1 29.979741 24.267031 38.548593
8349   1  1 28.552144 22.839807 39.976041
8350   1  1 29.980053 24.268710 41.402488
8370   1  1 29.981454 27.124563 12.848895
8371   1  1 28.553437 25.695875 14.275499
8372   1  1 29.981299 27.122561 15.702563
8373   1  1 28.552277 25.691095 17.126515
8374   1  1 29.980459 27.116998 18.551885
8375   1  1 28.548109 25.678818 19.969803
8376   1  1 29.981293 27.095609 21.383123
8377   1  1 28.537152 25.682832 22.826080
8378   1  1 29.956639 27.114527 24.237799
8379   1  1 28.553188 25.696770 25.698789
8380   1  1 29.955660 27.114465 27.159443
8381   1  1 28.535320 25.682362 28.571805
8382   1  1 29.978917 27.095077 30.014460
8383   1  1 28.545090 25.677598 31.428502
8384   1  1 29.977487 27.116052 32.845725
8385   1  1 28.548980 25.689263 34.271617
8386   1  1 29.978426 27.121369 35.694606
8387   1  1 28.550705 25.693773 37.121945
8388   1  1 29.979127 27.123508 38.547544
8389   1  1 28.551649 25.695844 39.975179
8390   1  1 29.979618 27.124569 41.401861
8391   1  1 28.552259 25.696886 42.829668
8410   1  1 29.981540 29.980419 12.849350
8411   1  1 28.553443 28.551995 14.276430
8412   1  1 29.981010 29.979578 15.703999
8413   1  1 28.551093 28.549149 17.129077
8414   1  1 29.978536 29.976869 18.555992
8415   1  1 28.540388 28.538192 19.973551
8416   1  1 29.971361 29.969641 21.381715
8417   1  1 28.452583 28.450546 22.734635
8418   1  1 29.825723 29.824255 23.873785
8419   1  1 28.601195 28.599560 25.699105
8420   1  1 30.666466 30.663709 25.699544
8421   1  1 29.823551 29.824178 27.524370
8422   1  1 28.450565 28.450063 28.664032
8423   1  1 29.968856 29.969205 30.016240
8424   1  1 28.537261 28.537245 31.425006
8425   1  1 29.975554 29.976340 32.841583
8426   1  1 28.547646 28.548064 34.268914
8427   1  1 29.978034 29.979073 35.692969
8428   1  1 28.550350 28.550988 37.120641
8429   1  1 29.978966 29.980029 38.546934
8430   1  1 28.551449 28.552133 39.974553
8431   1  1 29.979530 29.980442 41.401634
8432   1  1 28.552108 28.552647 42.829324
8451   1  1 29.981494 32.836293 12.849041
8452   1  1 28.553613 31.408280 14.276576
8453   1  1 29.981420 32.836515 15.703337
8454   1  1 28.552056 31.408276 17.129934
8455   1  1 29.981222 32.836582 18.555479
8456   1  1 28.545096 31.411164 19.978099
8457   1  1 29.986864 32.830445 21.406729
8458   1  1 28.502219 31.443587 22.797833
8459   1  1 30.022506 32.794042 24.291049
8460   1  1 28.448072 31.399968 25.699454
8461   1  1 30.021395 32.794140 27.106819
8462   1  1 28.500216 31.443422 28.600973
8463   1  1 29.984790 32.830368 29.990931
8464   1  1 28.542203 31.410913 31.420296
8465   1  1 29.978558 32.836569 32.841944
8466   1  1 28.548814 31.408093 34.267892
8467   1  1 29.978723 32.836649 35.693588
8468   1  1 28.550635 31.408234 37.120422
8469   1  1 29.979218 32.836492 38.547255
8470   1  1 28.551521 31.408407 39.974532
8471   1  1 29.979686 32.836351 41.401823
8472   1  1 28.552121 31.408455 42.829304
8491   1  1 29.981102 35.692277 12.848310
8492   1  1 28.553500 34.264404 14.275843
8493   1  1 29.980682 35.693681 15.701907
8494   1  1 28.552770 34.265377 17.128762
8495   1  1 29.977802 35.697527 18.552350
8496   1  1 28.553050 34.264947 19.980737
8497   1  1 29.964073 35.711565 21.393922
8498   1  1 28.563066 34.254389 22.843436
8499   1  1 29.969870 35.703803 24.261661
8500   1  1 28.571856 34.244924 25.698840
8501   1  1 29.969215 35.703782 27.135222
8502   1  1 28.561551 34.254514 28.554477
8503   1  1 29.962397 35.711606 30.003170
8504   1  1 28.550640 34.265187 31.417206
8505   1  1 29.975615 35.697844 32.844801
8506   1  1 28.549982 34.265935 34.268929
8507   1  1 29.978511 35.694342 35.695017
8508   1  1 28.550937 34.265211 37.121246
8509   1  1 29.979456 35.693013 38.548132
8510   1  1 28.551707 34.264653 39.975021
8511   1  1 29.980008 35.692261 41.402339
8512   1  1 28.552261 34.264236 42.829612
8532   1  1 28.552739 37.120774 14.274881
8533   1  1 29.979995 38.550280 15.700770
8534   1  1 28.550805 37.123463 17.127396
8535   1  1 29.977511 38.554612 18.552461
8536   1  1 28.545089 37.129218 19.977690
8537   1  1 29.977865 38.553281 21.409969
8538   1  1 28.547650 37.125752 22.838914
8539   1  1 29.982325 38.547730 24.269984
8540   1  1 28.551259 37.121830 25.698322
8541   1  1 29.981867 38.547579 27.125961
8542   1  1 28.546567 37.125719 28.557933
8543   1  1 29.976586 38.553110 29.986252
8544   1  1 28.543187 37.129539 31.419566
8545   1  1 29.975797 38.554937 32.844168
8546   1  1 28.548614 37.124389 34.270000
8547   1  1 29.978379 38.551314 35.696046
8548   1  1 28.550863 37.122175 37.122303
8549   1  1 29.979831 38.549466 38.549196
8550   1  1 28.551974 37.120908 39.975823
8574   1  1 28.551123 39.979028 17.127752
8575   1  1 29.979903 41.406173 18.556369
8576   1  1 28.550579 39.979365 19.984026
8577   1  1 29.980401 41.404884 21.413101
8578   1  1 28.552447 39.976858 22.842077
8579   1  1 29.981848 41.402655 24.269898
8580   1  1 28.553353 39.975463 25.697863
8581   1  1 29.981533 41.402402 27.125321
8582   1  1 28.551667 39.976550 28.553720
8583   1  1 29.979464 41.404287 29.982119
8584   1  1 28.549148 39.979329 31.412214
8585   1  1 29.978581 41.406134 32.839296
8586   1  1 28.549380 39.979959 34.268942
8587   1  1 29.979308 41.406182 35.695123
8588   1  1 28.551292 39.978338 37.122847
8618   1  1 28.553033 42.831260 22.841902
8619   1  1 29.981096 44.258222 24.269655
8620   1  1 28.553251 42.830505 25.697590
8621   1  1 29.980930 44.257988 27.125266
8622   1  1 28.552538 42.830784 28.553161
8623   1  1 29.980256 44.258514 29.981196
8624   1  1 28.551446 42.831908 31.409703
8625   1  1 29.979986 44.259302 32.837295
8626   1  1 28.551394 42.832854 34.266256
8660   1  1 28.552952 45.685750 25.697578
8662   1  1 28.552697 45.685761 28.553186
8664   1  1 28.552403 45.686145 31.409031
9057   1  1 32.837438 18.555902 21.412564
9058   1  1 31.408901 17.129557 22.841180
9059   1  1 32.836834 18.557077 24.268939
9060   1  1 31.408603 17.130080 25.697282
9061   1  1 32.836273 18.557446 27.125098
9062   1  1 31.408445 17.129956 28.553340
9063   1  1 32.836491 18.556909 29.981294
9064   1  1 31.408502 17.129414 31.409414
9065   1  1 32.836825 18.556013 32.837765
9093   1  1 32.837790 21.410048 15.700532
9095   1  1 32.838749 21.408015 18.555135
9096   1  1 31.409488 19.982241 19.984075
9097   1  1 32.838199 21.409713 21.412048
9098   1  1 31.408919 19.984100 22.840793
9099   1  1 32.836090 21.412173 24.269077
9100   1  1 31.407892 19.985281 25.697296
9101   1  1 32.835350 21.412656 27.125040
9102   1  1 31.408038 19.984733 28.553823
9103   1  1 32.836657 21.410894 29.982130
9104   1  1 31.408501 19.983281 31.410425
9105   1  1 32.837364 21.409132 32.839417
9106   1  1 31.408903 19.982137 34.267042
9107   1  1 32.837258 21.409483 35.695145
9109   1  1 32.836795 21.411736 38.548995
9132   1  1 31.409364 22.839295 14.274270
9133   1  1 32.838349 24.265591 15.701009
9134   1  1 31.410576 22.835439 17.126899
9135   1  1 32.841191 24.260428 18.551979
9136   1  1 31.410697 22.834760 19.982117
9137   1  1 32.840559 24.261409 21.409048
9138   1  1 31.408587 22.838362 22.839721
9139   1  1 32.835177 24.267013 24.269178
9140   1  1 31.405387 22.841542 25.697557
9141   1  1 32.834325 24.267406 27.125574
9142   1  1 31.407276 22.838866 28.555542
9143   1  1 32.838615 24.262118 29.986008
9144   1  1 31.408816 22.835217 31.413571
9145   1  1 32.839014 24.260681 32.843777
9146   1  1 31.409011 22.834923 34.269539
9147   1  1 32.836692 24.265032 35.695279
9148   1  1 31.408436 22.837986 37.122257
9149   1  1 32.835867 24.267691 38.548180
9150   1  1 31.408225 22.840267 39.975645
9151   1  1 32.835746 24.269068 41.402303
9171   1  1 32.836963 27.124395 12.848477
9172   1  1 31.409518 25.695591 14.275389
9173   1  1 32.837879 27.122637 15.702013
9174   1  1 31.410594 25.691630 17.127008
9175   1  1 32.840740 27.118233 18.552033
9176   1  1 31.414294 25.682360 19.973378
9177   1  1 32.853956 27.103703 21.393216
9178   1  1 31.409553 25.687485 22.833259
9179   1  1 32.847081 27.111177 24.260901
9180   1  1 31.397935 25.695942 25.697985
9181   1  1 32.846180 27.111367 27.134688
9182   1  1 31.407957 25.687622 28.562900
9183   1  1 32.851885 27.103856 30.002610
9184   1  1 31.411887 25.682142 31.423225
9185   1  1 32.838232 27.118106 32.844095
9186   1  1 31.408168 25.690909 34.269800
9187   1  1 32.835505 27.122200 35.694169
9188   1  1 31.407482 25.694498 37.121243
9189   1  1 32.835099 27.123978 38.547347
9190   1  1 31.407538 25.696249 39.974847
9191   1  1 32.835207 27.124874 41.401716
9210   1  1 31.409043 28.552686 11.421476