Generated by pymatgen.io.lammps.data.LammpsData

16000  atoms

    1  atom types

0.000000 57.106000  xlo xhi
0.000000 57.106000  ylo yhi
0.000000 57.106000  zlo zhi
0.000000 0.000000 0.000000  xy xz yz

Masses

1  55.847

Atoms

1     -2  1 57.064876 57.064752 57.064707
2     -2  1  1.411812  1.411724  1.411648
3     -2  1  0.001687  0.001467  2.854886
4     -2  1  1.426835  1.426668  4.281360
5     -2  1  0.000285  0.000005  5.710379
6     -2  1  1.427569  1.427349  7.137583
7     -2  1  0.000234 57.105920  8.565484
8     -2  1  1.427727  1.427481  9.993019
9     -2  1  0.000274 57.105953 11.420762
10    -2  1  1.427784  1.427540 12.848395
11    -2  1  0.000282 57.105977 14.276100
12    -2  1  1.427789  1.427568 15.703771
13    -2  1  0.000262 57.105992 17.131473
14    -2  1  1.427763  1.427583 18.559161
15    -2  1  0.000222  0.000001 19.986868
16    -2  1  1.427719  1.427590 21.414564
17    -2  1  0.000170  0.000005 22.842276
18    -2  1  1.427663  1.427594 24.269975
19    -2  1  0.000110  0.000006 25.697689
20    -2  1  1.427602  1.427595 27.125390
21    -2  1  0.000047  0.000004 28.553102
22    -2  1  1.427538  1.427594 29.980805
23    -2  1 57.105984 57.106000 31.408510
24    -2  1  1.427475  1.427590 32.836217
25    -2  1 57.105923 57.105993 34.263908
26    -2  1  1.427415  1.427583 35.691619
27    -2  1 57.105869 57.105981 37.119289
28    -2  1  1.427360  1.427568 38.547010
29    -2  1 57.105824 57.105964 39.974646
30    -2  1  1.427309  1.427540 41.402386
31    -2  1 57.105789 57.105938 42.829968
32    -2  1  1.427248  1.427481 44.257762
33    -2  1 57.105772 57.105906 45.685230
34    -2  1  1.427139  1.427347 47.113199
35    -2  1 57.105899 57.105992 48.540325
36    -2  1  1.426506  1.426663 49.969426
37    -2  1  0.001423  0.001454 51.395818
38    -2  1  1.411620  1.411704 52.839150
39    -2  1 57.064751 57.064711 54.292021
40    -2  1  1.420985  1.420983 55.678391
41    -2  1  0.001600  2.855086  0.001431
42    -2  1  1.426763  4.281585  1.426599
43    -2  1 57.105716  2.851522  2.851334
44    -2  1  1.426995  4.280672  4.280466
45    -2  1 57.105947  2.854386  5.709227
46    -2  1  1.427451  4.282111  7.137021
47    -2  1  0.000182  2.854952  8.565173
48    -2  1  1.427690  4.282559  9.992806
49    -2  1  0.000261  2.855090 11.420648
50    -2  1  1.427772  4.282698 12.848302
51    -2  1  0.000277  2.855140 14.276049
52    -2  1  1.427785  4.282749 15.703726
53    -2  1  0.000259  2.855163 17.131448
54    -2  1  1.427762  4.282770 18.559139
55    -2  1  0.000221  2.855174 19.986855
56    -2  1  1.427718  4.282779 21.414553
57    -2  1  0.000169  2.855181 22.842270
58    -2  1  1.427663  4.282783 24.269971
59    -2  1  0.000110  2.855184 25.697687
60    -2  1  1.427601  4.282785 27.125390
61    -2  1  0.000047  2.855186 28.553104
62    -2  1  1.427536  4.282783 29.980810
63    -2  1 57.105983  2.855186 31.408517
64    -2  1  1.427471  4.282779 32.836228
65    -2  1 57.105922  2.855183 34.263921
66    -2  1  1.427409  4.282770 35.691642
67    -2  1 57.105867  2.855174 37.119315
68    -2  1  1.427350  4.282749 38.547055
69    -2  1 57.105819  2.855153 39.974697
70    -2  1  1.427289  4.282698 41.402480
71    -2  1 57.105777  2.855104 42.830081
72    -2  1  1.427203  4.282559 44.257975
73    -2  1 57.105721  2.854965 45.685542
74    -2  1  1.427014  4.282110 47.113762
75    -2  1 57.105564  2.854396 48.541477
76    -2  1  1.426663  4.280669 49.970318
77    -2  1 57.105461  2.851526 51.399365
78    -2  1  1.426582  4.281583 52.824185
79    -2  1  0.001509  2.855086 54.249264
80    -2  1  1.426732  4.281922 55.678391
81    -2  1  0.000127  5.710710 57.105956
82    -2  1  1.427450  7.137926  1.427284
83    -2  1 57.105881  5.709534  2.854212
84    -2  1  1.427407  7.137333  4.281934
85    -2  1  0.000015  5.709142  5.708871
86    -2  1  1.427544  7.137246  7.136981
87    -2  1  0.000184  5.709891  8.564827
88    -2  1  1.427702  7.137653  9.992640
89    -2  1  0.000265  5.710190 11.420477
90    -2  1  1.427775  7.137860 12.848199
91    -2  1  0.000285  5.710297 14.275966
92    -2  1  1.427788  7.137945 15.703673
93    -2  1  0.000269  5.710339 17.131406
94    -2  1  1.427764  7.137981 18.559112
95    -2  1  0.000230  5.710360 19.986835
96    -2  1  1.427719  7.137997 21.414541
97    -2  1  0.000177  5.710372 22.842262
98    -2  1  1.427662  7.138004 24.269966
99    -2  1  0.000116  5.710379 25.697686
100   -2  1  1.427599  7.138006 27.125390
101   -2  1  0.000051  5.710384 28.553108
102   -2  1  1.427532  7.138004 29.980815
103   -2  1 57.105986  5.710387 31.408527
104   -2  1  1.427465  7.137997 32.836240
105   -2  1 57.105923  5.710385 34.263941
106   -2  1  1.427399  7.137981 35.691669
107   -2  1 57.105864  5.710372 37.119354
108   -2  1  1.427335  7.137945 38.547108
109   -2  1 57.105811  5.710336 39.974776
110   -2  1  1.427270  7.137859 41.402582
111   -2  1 57.105763  5.710232 42.830246
112   -2  1  1.427191  7.137652 44.258141
113   -2  1 57.105705  5.709930 45.685880
114   -2  1  1.427084  7.137245 47.113800
115   -2  1 57.105616  5.709174 48.541826
116   -2  1  1.427058  7.137332 49.968848
117   -2  1 57.105615  5.709554 51.396479
118   -2  1  1.427260  7.137925 52.823497
119   -2  1  0.000034  5.710717 54.250732
120   -2  1  1.427406  7.138068 55.678391
121   -2  1  0.000029  8.565905 57.105858
122   -2  1  1.427589  9.993437  1.427425
123   -2  1  0.000076  8.565561  2.854795
124   -2  1  1.427633  9.993188  4.282420
125   -2  1  0.000148  8.565165  5.709664
126   -2  1  1.427691  9.992965  7.137450
127   -2  1  0.000227  8.565121  8.564845
128   -2  1  1.427753  9.992960  9.992710
129   -2  1  0.000285  8.565343 11.420376
130   -2  1  1.427794  9.993091 12.848171
131   -2  1  0.000300  8.565480 14.275893
132   -2  1  1.427796  9.993185 15.703644
133   -2  1  0.000281  8.565548 17.131367
134   -2  1  1.427768  9.993236 18.559097
135   -2  1  0.000239  8.565584 19.986817
136   -2  1  1.427720  9.993262 21.414535
137   -2  1  0.000183  8.565605 22.842255
138   -2  1  1.427662  9.993274 24.269965
139   -2  1  0.000120  8.565619 25.697686
140   -2  1  1.427597  9.993278 27.125390
141   -2  1  0.000053  8.565627 28.553112
142   -2  1  1.427529  9.993274 29.980816
143   -2  1 57.105986  8.565630 31.408535
144   -2  1  1.427460  9.993262 32.836245
145   -2  1 57.105920  8.565624 34.263959
146   -2  1  1.427391  9.993235 35.691683
147   -2  1 57.105858  8.565602 37.119389
148   -2  1  1.427325  9.993185 38.547137
149   -2  1 57.105802  8.565543 39.974840
150   -2  1  1.427263  9.993091 41.402610
151   -2  1 57.105754  8.565409 42.830335
152   -2  1  1.427213  9.992960 44.258071
153   -2  1 57.105718  8.565182 45.685850
154   -2  1  1.427202  9.992964 47.113332
155   -2  1 57.105723  8.565215 48.541022
156   -2  1  1.427261  9.993188 49.968361
157   -2  1 57.105793  8.565593 51.395887
158   -2  1  1.427387  9.993437 52.823356
159   -2  1 57.105930  8.565916 54.250823
160   -2  1  1.427512  9.993519 55.678390
161   -2  1  0.000049 11.421227 57.105881
162   -2  1  1.427654 12.848841  1.427497
163   -2  1  0.000141 11.421076  2.854955
164   -2  1  1.427728 12.848713  4.282604
165   -2  1  0.000220 11.420849  5.710013
166   -2  1  1.427780 12.848554  7.137728
167   -2  1  0.000279 11.420677  8.565138
168   -2  1  1.427811 12.848448  9.992929
169   -2  1  0.000311 11.420664 11.420444
170   -2  1  1.427820 12.848444 12.848258
171   -2  1  0.000313 11.420742 14.275887
172   -2  1  1.427806 12.848493 15.703675
173   -2  1  0.000285 11.420811 17.131355
174   -2  1  1.427771 12.848540 18.559113
175   -2  1  0.000237 11.420859 19.986812
176   -2  1  1.427720 12.848572 21.414546
177   -2  1  0.000177 11.420890 22.842255
178   -2  1  1.427660 12.848590 24.269971
179   -2  1  0.000111 11.420911 25.697687
180   -2  1  1.427596 12.848596 27.125390
181   -2  1  0.000044 11.420922 28.553112
182   -2  1  1.427528 12.848590 29.980810
183   -2  1 57.105976 11.420923 31.408534
184   -2  1  1.427458 12.848572 32.836235
185   -2  1 57.105909 11.420912 34.263959
186   -2  1  1.427389 12.848540 35.691668
187   -2  1 57.105847 11.420881 37.119391
188   -2  1  1.427324 12.848493 38.547105
189   -2  1 57.105792 11.420823 39.974832
190   -2  1  1.427271 12.848443 41.402523
191   -2  1 57.105751 11.420748 42.830252
192   -2  1  1.427246 12.848448 44.257852
193   -2  1 57.105738 11.420754 45.685542
194   -2  1  1.427266 12.848553 47.113053
195   -2  1 57.105766 11.420910 48.540659
196   -2  1  1.427334 12.848713 49.968177
197   -2  1 57.105838 11.421115 51.395717
198   -2  1  1.427439 12.848841 52.823284
199   -2  1 57.105942 11.421240 54.250794
200   -2  1  1.427556 12.848887 55.678390
201   -2  1  0.000060 14.276561 57.105900
202   -2  1  1.427687 15.704200  1.427540
203   -2  1  0.000167 14.276474  2.855032
204   -2  1  1.427773 15.704124  4.282703
205   -2  1  0.000254 14.276337  5.710174
206   -2  1  1.427828 15.704021  7.137889
207   -2  1  0.000309 14.276194  8.565351
208   -2  1  1.427850 15.703923  9.993117
209   -2  1  0.000328 14.276108 11.420609
210   -2  1  1.427843 15.703869 12.848410
211   -2  1  0.000314 14.276100 14.275969
212   -2  1  1.427815 15.703865 15.703771
213   -2  1  0.000274 14.276137 17.131393
214   -2  1  1.427772 15.703888 18.559171
215   -2  1  0.000217 14.276181 19.986833
216   -2  1  1.427718 15.703914 21.414581
217   -2  1  0.000152 14.276217 22.842267
218   -2  1  1.427658 15.703932 24.269988
219   -2  1  0.000085 14.276242 25.697690
220   -2  1  1.427595 15.703938 27.125390
221   -2  1  0.000018 14.276256 28.553104
222   -2  1  1.427529 15.703932 29.980793
223   -2  1 57.105953 14.276256 31.408515
224   -2  1  1.427461 15.703914 32.836200
225   -2  1 57.105889 14.276244 34.263927
226   -2  1  1.427394 15.703888 35.691609
227   -2  1 57.105830 14.276219 37.119339
228   -2  1  1.427332 15.703865 38.547010
229   -2  1 57.105780 14.276192 39.974735
230   -2  1  1.427287 15.703869 41.402370
231   -2  1 57.105748 14.276201 42.830070
232   -2  1  1.427271 15.703923 44.257663
233   -2  1 57.105744 14.276277 45.685313
234   -2  1  1.427295 15.704020 47.112892
235   -2  1 57.105776 14.276402 48.540486
236   -2  1  1.427362 15.704124 49.968078
237   -2  1 57.105847 14.276515 51.395632
238   -2  1  1.427463 15.704200 52.823240
239   -2  1 57.105947 14.276575 54.250768
240   -2  1  1.427578 15.704226 55.678390
241   -2  1  0.000062 17.131883 57.105914
242   -2  1  1.427705 18.559525  1.427571
243   -2  1  0.000176 17.131827  2.855083
244   -2  1  1.427796 18.559480  4.282770
245   -2  1  0.000267 17.131739  5.710272
246   -2  1  1.427853 18.559414  7.137999
247   -2  1  0.000319 17.131638  8.565496
248   -2  1  1.427870 18.559345  9.993262
249   -2  1  0.000328 17.131554 11.420769
250   -2  1  1.427856 18.559289 12.848563
251   -2  1  0.000301 17.131511 14.276100
252   -2  1  1.427819 18.559262 15.703901
253   -2  1  0.000249 17.131511 17.131481
254   -2  1  1.427769 18.559259 18.559265
255   -2  1  0.000183 17.131535 19.986886
256   -2  1  1.427713 18.559270 21.414640
257   -2  1  0.000113 17.131566 22.842293
258   -2  1  1.427655 18.559281 24.270016
259   -2  1  0.000045 17.131591 25.697693
260   -2  1  1.427594 18.559285 27.125390
261   -2  1 57.105981 17.131606 28.553085
262   -2  1  1.427532 18.559281 29.980764
263   -2  1 57.105920 17.131609 31.408472
264   -2  1  1.427468 18.559270 32.836140
265   -2  1 57.105863 17.131604 34.263858
266   -2  1  1.427404 18.559259 35.691516
267   -2  1 57.105811 17.131597 37.119235
268   -2  1  1.427346 18.559261 38.546880
269   -2  1 57.105768 17.131605 39.974588
270   -2  1  1.427303 18.559289 41.402217
271   -2  1 57.105741 17.131646 42.829897
272   -2  1  1.427288 18.559345 44.257519
273   -2  1 57.105740 17.131718 45.685157
274   -2  1  1.427311 18.559414 47.112782
275   -2  1 57.105773 17.131801 48.540380
276   -2  1  1.427374 18.559480 49.968011
277   -2  1 57.105843 17.131866 51.395575
278   -2  1  1.427473 18.559525 52.823209
279   -2  1 57.105945 17.131896 54.250749
280   -2  1  1.427591 18.559541 55.678390
281   -2  1  0.000061 19.987184 57.105925
282   -2  1  1.427715 21.414822  1.427594
283   -2  1  0.000178 19.987148  2.855120
284   -2  1  1.427808 21.414796  4.282819
285   -2  1  0.000269 19.987092  5.710342
286   -2  1  1.427864 21.414758  7.138078
287   -2  1  0.000317 19.987026  8.565603
288   -2  1  1.427879 21.414714  9.993372
289   -2  1  0.000318 19.986964 11.420902
290   -2  1  1.427859 21.414674 12.848693
291   -2  1  0.000279 19.986919 14.276235
292   -2  1  1.427817 21.414644 15.704029
293   -2  1  0.000215 19.986899 17.131593
294   -2  1  1.427764 21.414629 18.559372
295   -2  1  0.000142 19.986903 19.986962
296   -2  1  1.427708 21.414624 21.414715
297   -2  1  0.000069 19.986919 22.842333
298   -2  1  1.427651 21.414625 24.270054
299   -2  1  0.000002 19.986939 25.697697
300   -2  1  1.427594 21.414626 27.125390
301   -2  1 57.105941 19.986954 28.553055
302   -2  1  1.427537 21.414625 29.980727
303   -2  1 57.105887 19.986964 31.408409
304   -2  1  1.427477 21.414624 32.836066
305   -2  1 57.105837 19.986971 34.263760
306   -2  1  1.427417 21.414629 35.691409
307   -2  1 57.105793 19.986981 37.119107
308   -2  1  1.427362 21.414644 38.546751
309   -2  1 57.105757 19.987004 39.974441
310   -2  1  1.427319 21.414674 41.402088
311   -2  1 57.105734 19.987045 42.829754
312   -2  1  1.427301 21.414714 44.257408
313   -2  1 57.105735 19.987095 45.685043
314   -2  1  1.427320 21.414757 47.112703
315   -2  1 57.105767 19.987145 48.540303
316   -2  1  1.427381 21.414796 49.967962
317   -2  1 57.105837 19.987181 51.395533
318   -2  1  1.427479 21.414822 52.823187
319   -2  1 57.105940 19.987195 54.250735
320   -2  1  1.427598 21.414831 55.678390
321   -2  1  0.000058 22.842464 57.105933
322   -2  1  1.427720 24.270095  1.427610
323   -2  1  0.000177 22.842442  2.855148
324   -2  1  1.427814 24.270082  4.282853
325   -2  1  0.000267 22.842409  5.710394
326   -2  1  1.427869 24.270063  7.138133
327   -2  1  0.000310 22.842370  8.565681
328   -2  1  1.427880 24.270041  9.993450
329   -2  1  0.000303 22.842332 11.421006
330   -2  1  1.427857 24.270018 12.848790
331   -2  1  0.000254 22.842299 14.276351
332   -2  1  1.427812 24.269998 15.704133
333   -2  1  0.000183 22.842276 17.131701
334   -2  1  1.427757 24.269981 18.559467
335   -2  1  0.000104 22.842267 19.987045
336   -2  1  1.427702 24.269970 21.414786
337   -2  1  0.000029 22.842270 22.842378
338   -2  1  1.427647 24.269963 24.270091
339   -2  1 57.105964 22.842280 25.697702
340   -2  1  1.427595 24.269961 27.125390
341   -2  1 57.105907 22.842295 28.553020
342   -2  1  1.427541 24.269963 29.980689
343   -2  1 57.105859 22.842311 31.408337
344   -2  1  1.427486 24.269970 32.835995
345   -2  1 57.105817 22.842326 34.263658
346   -2  1  1.427429 24.269981 35.691314
347   -2  1 57.105779 22.842344 37.118985
348   -2  1  1.427375 24.269998 38.546647
349   -2  1 57.105749 22.842366 39.974317
350   -2  1  1.427332 24.270018 41.401991
351   -2  1 57.105729 22.842394 42.829646
352   -2  1  1.427311 24.270041 44.257330
353   -2  1 57.105730 22.842423 45.684961
354   -2  1  1.427326 24.270063 47.112648
355   -2  1 57.105762 22.842449 48.540249
356   -2  1  1.427385 24.270082 49.967928
357   -2  1 57.105831 22.842466 51.395502
358   -2  1  1.427482 24.270095 52.823171
359   -2  1 57.105935 22.842472 54.250725
360   -2  1  1.427601 24.270100 55.678390
361   -2  1  0.000054 25.697724 57.105938
362   -2  1  1.427721 27.125351  1.427618
363   -2  1  0.000174 25.697714  2.855166
364   -2  1  1.427816 27.125348  4.282871
365   -2  1  0.000263 25.697699  5.710427
366   -2  1  1.427869 27.125343  7.138164
367   -2  1  0.000303 25.697681  8.565732
368   -2  1  1.427878 27.125338  9.993494
369   -2  1  0.000289 25.697664 11.421075
370   -2  1  1.427852 27.125332 12.848845
371   -2  1  0.000234 25.697647 14.276433
372   -2  1  1.427806 27.125324 15.704196
373   -2  1  0.000157 25.697632 17.131783
374   -2  1  1.427751 27.125314 18.559527
375   -2  1  0.000075 25.697620 19.987111
376   -2  1  1.427697 27.125304 21.414834
377   -2  1 57.106000 25.697616 22.842416
378   -2  1  1.427645 27.125296 24.270118
379   -2  1 57.105936 25.697619 25.697704
380   -2  1  1.427595 27.125293 27.125390
381   -2  1 57.105883 25.697630 28.552987
382   -2  1  1.427544 27.125296 29.980662
383   -2  1 57.105840 25.697645 31.408275
384   -2  1  1.427492 27.125304 32.835947
385   -2  1 57.105803 25.697661 34.263576
386   -2  1  1.427438 27.125314 35.691253
387   -2  1 57.105771 25.697676 37.118895
388   -2  1  1.427384 27.125324 38.546585
389   -2  1 57.105745 25.697690 39.974232
390   -2  1  1.427339 27.125332 41.401935
391   -2  1 57.105727 25.697703 42.829575
392   -2  1  1.427316 27.125338 44.257287
393   -2  1 57.105727 25.697714 45.684908
394   -2  1  1.427329 27.125343 47.112617
395   -2  1 57.105758 25.697723 48.540214
396   -2  1  1.427386 27.125348 49.967910
397   -2  1 57.105827 25.697729 51.395483
398   -2  1  1.427482 27.125351 52.823162
399   -2  1 57.105931 25.697730 54.250719
400   -2  1  1.427602 27.125352 55.678390
401   -2  1  0.000052 28.552973 57.105940
402   -2  1  1.427720 29.980598  1.427620
403   -2  1  0.000172 28.552972  2.855173
404   -2  1  1.427814 29.980604  4.282874
405   -2  1  0.000260 28.552972  5.710440
406   -2  1  1.427867 29.980613  7.138168
407   -2  1  0.000297 28.552973  8.565753
408   -2  1  1.427875 29.980623  9.993500
409   -2  1  0.000281 28.552974 11.421104
410   -2  1  1.427848 29.980632 12.848854
411   -2  1  0.000222 28.552974 14.276468
412   -2  1  1.427802 29.980637 15.704206
413   -2  1  0.000142 28.552970 17.131820
414   -2  1  1.427748 29.980636 18.559539
415   -2  1  0.000059 28.552964 19.987143
416   -2  1  1.427694 29.980631 21.414845
417   -2  1 57.105984 28.552958 22.842435
418   -2  1  1.427643 29.980625 24.270125
419   -2  1 57.105921 28.552956 25.697705
420   -2  1  1.427595 29.980623 27.125390
421   -2  1 57.105871 28.552960 28.552969
422   -2  1  1.427545 29.980625 29.980656
423   -2  1 57.105830 28.552969 31.408242
424   -2  1  1.427494 29.980631 32.835936
425   -2  1 57.105797 28.552979 34.263536
426   -2  1  1.427439 29.980636 35.691242
427   -2  1 57.105768 28.552986 37.118855
428   -2  1  1.427385 29.980637 38.546575
429   -2  1 57.105742 28.552988 39.974195
430   -2  1  1.427340 29.980632 41.401927
431   -2  1 57.105725 28.552987 42.829545
432   -2  1  1.427316 29.980623 44.257280
433   -2  1 57.105725 28.552984 45.684886
434   -2  1  1.427328 29.980613 47.112613
435   -2  1 57.105756 28.552981 48.540199
436   -2  1  1.427384 29.980604 49.967907
437   -2  1 57.105824 28.552977 51.395475
438   -2  1  1.427481 29.980598 52.823161
439   -2  1 57.105928 28.552975 54.250716
440   -2  1  1.427601 29.980596 55.678390
441   -2  1  0.000051 31.408218 57.105939
442   -2  1  1.427716 32.835848  1.427613
443   -2  1  0.000170 31.408227  2.855170
444   -2  1  1.427810 32.835864  4.282860
445   -2  1  0.000258 31.408243  5.710434
446   -2  1  1.427862 32.835889  7.138144
447   -2  1  0.000296 31.408263  8.565742
448   -2  1  1.427871 32.835916  9.993466
449   -2  1  0.000279 31.408282 11.421088
450   -2  1  1.427846 32.835940 12.848811
451   -2  1  0.000221 31.408297 14.276450
452   -2  1  1.427800 32.835954 15.704160
453   -2  1  0.000141 31.408304 17.131803
454   -2  1  1.427747 32.835957 18.559499
455   -2  1  0.000058 31.408303 19.987130
456   -2  1  1.427695 32.835953 21.414816
457   -2  1 57.105983 31.408296 22.842428
458   -2  1  1.427644 32.835948 24.270110
459   -2  1 57.105921 31.408289 25.697702
460   -2  1  1.427594 32.835946 27.125390
461   -2  1 57.105871 31.408285 28.552971
462   -2  1  1.427544 32.835948 29.980670
463   -2  1 57.105830 31.408285 31.408249
464   -2  1  1.427490 32.835953 32.835965
465   -2  1 57.105796 31.408288 34.263548
466   -2  1  1.427434 32.835957 35.691282
467   -2  1 57.105766 31.408288 37.118871
468   -2  1  1.427378 32.835954 38.546620
469   -2  1 57.105741 31.408282 39.974213
470   -2  1  1.427332 32.835940 41.401970
471   -2  1 57.105723 31.408269 42.829560
472   -2  1  1.427309 32.835916 44.257315
473   -2  1 57.105724 31.408252 45.684897
474   -2  1  1.427322 32.835889 47.112636
475   -2  1 57.105754 31.408235 48.540206
476   -2  1  1.427380 32.835864 49.967921
477   -2  1 57.105823 31.408222 51.395479
478   -2  1  1.427477 32.835848 52.823167
479   -2  1 57.105927 31.408216 54.250717
480   -2  1  1.427598 32.835842 55.678390
481   -2  1  0.000051 34.263468 57.105934
482   -2  1  1.427708 35.691110  1.427598
483   -2  1  0.000170 34.263491  2.855154
484   -2  1  1.427800 35.691143  4.282827
485   -2  1  0.000258 34.263526  5.710404
486   -2  1  1.427853 35.691190  7.138089
487   -2  1  0.000297 34.263569  8.565695
488   -2  1  1.427864 35.691239  9.993386
489   -2  1  0.000284 34.263609 11.421025
490   -2  1  1.427842 35.691276 12.848715
491   -2  1  0.000229 34.263636 14.276378
492   -2  1  1.427801 35.691289 15.704064
493   -2  1  0.000153 34.263645 17.131735
494   -2  1  1.427751 35.691284 18.559418
495   -2  1  0.000073 34.263640 19.987078
496   -2  1  1.427698 35.691273 21.414759
497   -2  1 57.105999 34.263627 22.842399
498   -2  1  1.427646 35.691264 24.270081
499   -2  1 57.105935 34.263614 25.697700
500   -2  1  1.427594 35.691261 27.125390
501   -2  1 57.105883 34.263603 28.552992
502   -2  1  1.427540 35.691264 29.980700
503   -2  1 57.105839 34.263598 31.408291
504   -2  1  1.427483 35.691273 32.836022
505   -2  1 57.105801 34.263599 34.263608
506   -2  1  1.427423 35.691284 35.691363
507   -2  1 57.105768 34.263601 37.118943
508   -2  1  1.427364 35.691289 38.546716
509   -2  1 57.105740 34.263593 39.974286
510   -2  1  1.427317 35.691276 41.402066
511   -2  1 57.105721 34.263570 42.829624
512   -2  1  1.427295 35.691239 44.257394
513   -2  1 57.105722 34.263537 45.684945
514   -2  1  1.427310 35.691190 47.112692
515   -2  1 57.105753 34.263502 48.540237
516   -2  1  1.427371 35.691143 49.967954
517   -2  1 57.105823 34.263475 51.395495
518   -2  1  1.427470 35.691110 52.823183
519   -2  1 57.105927 34.263463 54.250722
520   -2  1  1.427591 35.691098 55.678390
521   -2  1  0.000051 37.118733 57.105926
522   -2  1  1.427693 38.546396  1.427572
523   -2  1  0.000168 37.118774  2.855124
524   -2  1  1.427781 38.546457  4.282768
525   -2  1  0.000256 37.118840  5.710347
526   -2  1  1.427833 38.546541  7.137991
527   -2  1  0.000299 37.118916  8.565606
528   -2  1  1.427849 38.546617  9.993253
529   -2  1  0.000292 37.118977 11.420910
530   -2  1  1.427835 38.546653 12.848571
531   -2  1  0.000246 37.119004 14.276258
532   -2  1  1.427801 38.546645 15.703938
533   -2  1  0.000177 37.118998 17.131633
534   -2  1  1.427756 38.546618 18.559322
535   -2  1  0.000101 37.118977 19.987006
536   -2  1  1.427705 38.546594 21.414694
537   -2  1  0.000028 37.118953 22.842362
538   -2  1  1.427651 38.546580 24.270048
539   -2  1 57.105963 37.118932 25.697698
540   -2  1  1.427595 38.546576 27.125390
541   -2  1 57.105907 37.118917 28.553024
542   -2  1  1.427536 38.546580 29.980733
543   -2  1 57.105858 37.118912 31.408353
544   -2  1  1.427474 38.546594 32.836086
545   -2  1 57.105814 37.118917 34.263696
546   -2  1  1.427409 38.546618 35.691459
547   -2  1 57.105774 37.118931 37.119053
548   -2  1  1.427346 38.546645 38.546843
549   -2  1 57.105741 37.118936 39.974410
550   -2  1  1.427295 38.546653 41.402209
551   -2  1 57.105719 37.118914 42.829741
552   -2  1  1.427272 38.546617 44.257527
553   -2  1 57.105719 37.118863 45.685036
554   -2  1  1.427289 38.546541 47.112790
555   -2  1 57.105752 37.118800 48.540295
556   -2  1  1.427354 38.546457 49.968012
557   -2  1 57.105823 37.118749 51.395526
558   -2  1  1.427457 38.546396 52.823209
559   -2  1 57.105928 37.118724 54.250732
560   -2  1  1.427578 38.546374 55.678390
561   -2  1  0.000048 39.974017 57.105912
562   -2  1  1.427662 41.401720  1.427529
563   -2  1  0.000161 39.974091  2.855076
564   -2  1  1.427742 41.401836  4.282669
565   -2  1  0.000249 39.974209  5.710251
566   -2  1  1.427794 41.401978  7.137826
567   -2  1  0.000296 39.974330  8.565460
568   -2  1  1.427820 41.402067  9.993056
569   -2  1  0.000300 39.974397 11.420744
570   -2  1  1.427822 41.402058 12.848403
571   -2  1  0.000267 39.974393 14.276115
572   -2  1  1.427802 41.402000 15.703821
573   -2  1  0.000209 39.974353 17.131529
574   -2  1  1.427762 41.401951 18.559241
575   -2  1  0.000140 39.974311 19.986940
576   -2  1  1.427712 41.401920 21.414640
577   -2  1  0.000069 39.974278 22.842329
578   -2  1  1.427655 41.401904 24.270020
579   -2  1  0.000002 39.974253 25.697697
580   -2  1  1.427596 41.401899 27.125390
581   -2  1 57.105942 39.974238 28.553055
582   -2  1  1.427533 41.401904 29.980760
583   -2  1 57.105886 39.974233 31.408413
584   -2  1  1.427466 41.401920 32.836140
585   -2  1 57.105835 39.974243 34.263783
586   -2  1  1.427397 41.401951 35.691540
587   -2  1 57.105787 39.974271 37.119170
588   -2  1  1.427329 41.402001 38.546960
589   -2  1 57.105745 39.974308 39.974561
590   -2  1  1.427270 41.402058 41.402378
591   -2  1 57.105717 39.974316 42.829913
592   -2  1  1.427238 41.402067 44.257725
593   -2  1 57.105714 39.974260 45.685186
594   -2  1  1.427252 41.401979 47.112954
595   -2  1 57.105747 39.974157 48.540395
596   -2  1  1.427320 41.401836 49.968111
597   -2  1 57.105821 39.974059 51.395577
598   -2  1  1.427431 41.401720 52.823252
599   -2  1 57.105927 39.974006 54.250748
600   -2  1  1.427556 41.401679 55.678390
601   -2  1  0.000039 42.829323 57.105890
602   -2  1  1.427600 44.257102  1.427454
603   -2  1  0.000142 42.829467  2.854994
604   -2  1  1.427652 44.257345  4.282476
605   -2  1  0.000226 42.829682  5.710079
606   -2  1  1.427713 44.257562  7.137531
607   -2  1  0.000282 42.829842  8.565228
608   -2  1  1.427772 44.257561  9.992811
609   -2  1  0.000303 42.829846 11.420551
610   -2  1  1.427807 44.257426 12.848282
611   -2  1  0.000289 42.829764 14.276000
612   -2  1  1.427802 44.257331 15.703753
613   -2  1  0.000244 42.829693 17.131459
614   -2  1  1.427768 44.257280 18.559192
615   -2  1  0.000182 42.829645 19.986895
616   -2  1  1.427718 44.257254 21.414604
617   -2  1  0.000114 42.829611 22.842306
618   -2  1  1.427660 44.257241 24.270001
619   -2  1  0.000046 42.829587 25.697698
620   -2  1  1.427597 44.257237 27.125390
621   -2  1 57.105982 42.829572 28.553080
622   -2  1  1.427531 44.257241 29.980779
623   -2  1 57.105921 42.829567 31.408460
624   -2  1  1.427462 44.257254 32.836176
625   -2  1 57.105862 42.829576 34.263849
626   -2  1  1.427390 44.257280 35.691589
627   -2  1 57.105806 42.829607 37.119257
628   -2  1  1.427319 44.257331 38.547028
629   -2  1 57.105755 42.829670 39.974688
630   -2  1  1.427250 44.257426 41.402499
631   -2  1 57.105716 42.829755 42.830115
632   -2  1  1.427193 44.257561 44.257970
633   -2  1 57.105703 42.829762 45.685426
634   -2  1  1.427180 44.257562 47.113250
635   -2  1 57.105733 42.829621 48.540573
636   -2  1  1.427241 44.257346 49.968305
637   -2  1 57.105809 42.829428 51.395664
638   -2  1  1.427376 44.257102 52.823327
639   -2  1 57.105921 42.829310 54.250773
640   -2  1  1.427512 44.257023 55.678390
641   -2  1  0.000024 45.684632 57.105864
642   -2  1  1.427463 47.112610  1.427305
643   -2  1  0.000085 45.684979  2.854822
644   -2  1  1.427430 47.113208  4.281974
645   -2  1  0.000166 45.685377  5.709709
646   -2  1  1.427571 47.113303  7.137038
647   -2  1  0.000248 45.685426  8.564905
648   -2  1  1.427729 47.112906  9.992707
649   -2  1  0.000301 45.685210 11.420446
650   -2  1  1.427797 47.112709 12.848271
651   -2  1  0.000305 45.685077 14.275966
652   -2  1  1.427803 47.112632 15.703742
653   -2  1  0.000272 45.685011 17.131436
654   -2  1  1.427773 47.112601 18.559173
655   -2  1  0.000218 45.684975 19.986874
656   -2  1  1.427723 47.112587 21.414585
657   -2  1  0.000154 45.684950 22.842293
658   -2  1  1.427664 47.112581 24.269990
659   -2  1  0.000087 45.684931 25.697698
660   -2  1  1.427599 47.112579 27.125390
661   -2  1  0.000020 45.684918 28.553095
662   -2  1  1.427531 47.112581 29.980791
663   -2  1 57.105954 45.684910 31.408489
664   -2  1  1.427461 47.112587 32.836195
665   -2  1 57.105890 45.684912 34.263886
666   -2  1  1.427390 47.112601 35.691608
667   -2  1 57.105828 45.684930 37.119297
668   -2  1  1.427320 47.112632 38.547038
669   -2  1 57.105771 45.684985 39.974737
670   -2  1  1.427248 47.112710 41.402510
671   -2  1 57.105721 45.685117 42.830233
672   -2  1  1.427164 47.112906 44.258074
673   -2  1 57.105683 45.685343 45.685760
674   -2  1  1.427057 47.113303 47.113744
675   -2  1 57.105689 45.685312 48.540951
676   -2  1  1.427035 47.113208 49.968807
677   -2  1 57.105764 45.684938 51.395841
678   -2  1  1.427248 47.112610 52.823476
679   -2  1 57.105911 45.684618 54.250804
680   -2  1  1.427406 47.112466 55.678390
681   -2  1  0.000126 48.539830 57.105958
682   -2  1  1.426775 49.968960  1.426611
683   -2  1 57.105894 48.541021  2.854227
684   -2  1  1.427016 49.969891  4.280489
685   -2  1  0.000041 48.541433  5.708895
686   -2  1  1.427477 49.968476  7.137052
687   -2  1  0.000217 48.540708  8.564858
688   -2  1  1.427717 49.968055  9.992843
689   -2  1  0.000298 48.540431 11.420512
690   -2  1  1.427796 49.967941 12.848340
691   -2  1  0.000312 48.540341 14.276004
692   -2  1  1.427803 49.967910 15.703763
693   -2  1  0.000287 48.540308 17.131445
694   -2  1  1.427774 49.967902 18.559171
695   -2  1  0.000239 48.540291 19.986870
696   -2  1  1.427725 49.967901 21.414577
697   -2  1  0.000179 48.540277 22.842286
698   -2  1  1.427666 49.967901 24.269984
699   -2  1  0.000113 48.540265 25.697697
700   -2  1  1.427601 49.967901 27.125390
701   -2  1  0.000045 48.540254 28.553102
702   -2  1  1.427533 49.967901 29.980797
703   -2  1 57.105978 48.540244 31.408503
704   -2  1  1.427464 49.967901 32.836204
705   -2  1 57.105912 48.540238 34.263901
706   -2  1  1.427397 49.967902 35.691610
707   -2  1 57.105849 48.540238 37.119301
708   -2  1  1.427332 49.967910 38.547018