Generated by pymatgen.io.lammps.data.LammpsData

1157  atoms

   1  atom types

0.000000 57.106000  xlo xhi
0.000000 57.106000  ylo yhi
0.000000 57.106000  zlo zhi
0.000000 0.000000 0.000000  xy xz yz

Masses

1  55.847

Atoms

5176   1  1 18.558139 27.123702 21.413338
5178   1  1 18.558720 27.123964 24.269758
5180   1  1 18.558452 27.123899 27.126192
5182   1  1 18.557703 27.123319 29.982835
5216   1  1 18.558903 29.979589 21.413609
5218   1  1 18.559718 29.979459 24.269860
5220   1  1 18.559509 29.979447 27.126274
5222   1  1 18.558422 29.979307 29.982713
5256   1  1 18.558983 32.835353 21.413956
5258   1  1 18.559761 32.834941 24.270057
5260   1  1 18.559730 32.835035 27.126124
5262   1  1 18.558593 32.835288 29.982317
5298   1  1 18.559205 35.690770 24.269984
5898   1  1 21.410036 21.409815 24.270743
5900   1  1 21.410362 21.410202 27.127293
5934   1  1 21.406636 24.263763 18.552963
5936   1  1 21.408441 24.264445 21.412553
5937   1  1 19.983211 22.838587 22.841937
5938   1  1 21.409495 24.265130 24.271059
5939   1  1 19.983503 22.838936 25.698565
5940   1  1 21.409955 24.265670 27.128541
5942   1  1 21.410560 24.265924 29.984450
5974   1  1 21.408398 27.122536 18.553379
5975   1  1 19.983195 25.694508 19.983979
5976   1  1 21.410928 27.121441 21.411048
5977   1  1 19.984549 25.695086 22.841503
5978   1  1 21.412101 27.122358 24.270098
5979   1  1 19.984695 25.695330 25.698529
5980   1  1 21.411265 27.122899 27.127562
5981   1  1 19.984331 25.695118 28.555222
5982   1  1 21.410060 27.120613 29.986333
5983   1  1 19.983435 25.694001 31.412309
5984   1  1 21.409847 27.120885 32.842703
6014   1  1 21.409850 29.980724 18.554355
6015   1  1 19.984593 28.551516 19.984369
6016   1  1 21.412341 29.979633 21.412019
6017   1  1 19.986421 28.551236 22.841233
6018   1  1 21.413969 29.979405 24.270097
6019   1  1 19.986237 28.551579 25.698265
6020   1  1 21.412734 29.979142 27.128428
6021   1  1 19.985189 28.550814 28.555745
6022   1  1 21.410346 29.977961 29.986613
6023   1  1 19.984108 28.550351 31.412560
6024   1  1 21.410172 29.978291 32.842596
6054   1  1 21.410628 32.837842 18.555167
6055   1  1 19.985083 31.408064 19.984866
6056   1  1 21.412054 32.835986 21.413047
6057   1  1 19.986532 31.407299 22.841813
6058   1  1 21.413360 32.836393 24.270045
6059   1  1 19.987285 31.407521 25.698670
6060   1  1 21.412561 32.837244 27.128948
6061   1  1 19.985844 31.407287 28.555690
6062   1  1 21.410079 32.836279 29.986875
6063   1  1 19.984459 31.407190 31.412282
6064   1  1 21.410387 32.835999 32.842255
6094   1  1 21.412235 35.692709 18.556556
6095   1  1 19.985382 34.263944 19.985379
6096   1  1 21.411960 35.693032 21.412058
6097   1  1 19.986112 34.263513 22.841717
6098   1  1 21.411726 35.693547 24.269052
6099   1  1 19.986534 34.263486 25.698055
6100   1  1 21.410893 35.694366 27.127188
6101   1  1 19.985667 34.263849 28.555365
6102   1  1 21.409953 35.694841 29.985961
6103   1  1 19.984373 34.263941 31.411700
6137   1  1 19.985701 37.119490 22.841696
6138   1  1 21.412976 38.548532 24.269124
6139   1  1 19.985825 37.119747 25.697560
6140   1  1 21.412632 38.549033 27.125805
6141   1  1 19.985156 37.120014 28.553819
6696   1  1 24.264809 21.409215 21.412099
6698   1  1 24.265753 21.410096 24.271129
6699   1  1 22.839383 19.983679 25.698578
6700   1  1 24.266576 21.410537 27.128562
6702   1  1 24.266630 21.410689 29.984685
6734   1  1 24.249671 24.249879 18.538669
6735   1  1 22.832534 22.833102 19.981812
6736   1  1 24.252305 24.253076 21.408656
6737   1  1 22.834086 22.834133 22.842764
6738   1  1 24.256386 24.256784 24.275221
6739   1  1 22.835214 22.835060 25.701599
6740   1  1 24.259872 24.260007 27.135059
6741   1  1 22.836726 22.836425 28.558428
6742   1  1 24.266227 24.266004 29.985568
6743   1  1 22.838042 22.837560 31.413203
6744   1  1 24.265236 24.263000 32.844045
6772   1  1 24.264348 27.122299 15.697087
6773   1  1 22.832195 25.692133 17.121372
6774   1  1 24.252357 27.118956 18.541663
6775   1  1 22.830595 25.687819 19.977084
6776   1  1 24.255706 27.111196 21.400668
6777   1  1 22.834287 25.690357 22.840977
6778   1  1 24.260242 27.115771 24.273563
6779   1  1 22.835059 25.691580 25.701882
6780   1  1 24.262908 27.123358 27.127780
6781   1  1 22.837110 25.693813 28.557201
6782   1  1 24.259610 27.114727 29.992993
6783   1  1 22.836102 25.690220 31.416854
6784   1  1 24.265327 27.119863 32.843868
6785   1  1 22.837355 25.692456 34.270485
6786   1  1 24.266348 27.122062 35.696713
6812   1  1 24.265671 29.980922 15.698190
6813   1  1 22.834098 28.552416 17.122709
6814   1  1 24.256806 29.984782 18.545462
6815   1  1 22.834467 28.550889 19.979494
6816   1  1 24.260657 29.983006 21.405295
6817   1  1 22.838628 28.548964 22.839015
6818   1  1 24.266442 29.979604 24.270375
6819   1  1 22.838347 28.551470 25.698826
6820   1  1 24.260705 29.976125 27.135764
6821   1  1 22.835346 28.547737 28.560255
6822   1  1 24.256661 29.974130 29.996108
6823   1  1 22.835117 28.547278 31.417996
6824   1  1 24.265151 29.977909 32.843670
6825   1  1 22.837979 28.549969 34.270297
6826   1  1 24.266902 29.979283 35.696082
6852   1  1 24.266737 32.838044 15.698897
6853   1  1 22.835737 31.411057 17.124068
6854   1  1 24.260817 32.843825 18.549025
6855   1  1 22.835680 31.411002 19.980957
6856   1  1 24.264060 32.835808 21.413330
6857   1  1 22.838861 31.407487 22.841761
6858   1  1 24.261587 32.843455 24.267168
6859   1  1 22.839430 31.409931 25.701441
6860   1  1 24.257177 32.847944 27.139934
6861   1  1 22.835336 31.407974 28.561238
6862   1  1 24.253461 32.840203 29.999235
6863   1  1 22.834539 31.406451 31.418605
6864   1  1 24.264898 32.837157 32.844141
6865   1  1 22.838408 31.407522 34.269888
6866   1  1 24.267295 32.836327 35.695873
6893   1  1 22.837555 34.267454 17.125805
6894   1  1 24.267922 35.692949 18.555781
6895   1  1 22.838528 34.264983 19.983931
6896   1  1 24.262035 35.699178 21.405681
6897   1  1 22.836801 34.267341 22.838701
6898   1  1 24.258803 35.702377 24.265408
6899   1  1 22.836188 34.268566 25.699277
6900   1  1 24.254720 35.706168 27.131437
6901   1  1 22.832880 34.271050 28.562933
6902   1  1 24.251033 35.710404 30.002323
6903   1  1 22.834301 34.266809 31.418923
6904   1  1 24.265531 35.696495 32.844703
6905   1  1 22.838675 34.265143 34.269559
6906   1  1 24.267673 35.693155 35.695801
6934   1  1 24.268944 38.548585 18.555787
6935   1  1 22.839149 37.122315 19.982137
6936   1  1 24.269139 38.548794 21.411842
6937   1  1 22.838242 37.123344 22.839159
6938   1  1 24.268506 38.549317 24.268951
6939   1  1 22.836684 37.124947 25.697318
6940   1  1 24.267526 38.550461 27.127567
6941   1  1 22.835801 37.126003 28.557182
6942   1  1 24.267424 38.551686 29.986534
6943   1  1 22.835933 37.126779 31.417829
6944   1  1 24.269266 38.550320 32.841487
6977   1  1 22.842097 39.975305 22.841569
6978   1  1 24.270664 41.402092 24.269850
6979   1  1 22.842063 39.975535 25.697630
6980   1  1 24.270528 41.402458 27.125882
6981   1  1 22.841747 39.976314 28.554283
6982   1  1 24.270012 41.403278 29.982333
7456   1  1 27.123780 18.558462 21.413363
7458   1  1 27.124163 18.559253 24.269683
7460   1  1 27.124461 18.559147 27.125893
7462   1  1 27.123993 18.558382 29.982499
7494   1  1 27.123848 21.410137 18.554697
7495   1  1 25.694754 19.983669 19.983786
7496   1  1 27.121433 21.412270 21.410847
7497   1  1 25.695326 19.985184 22.841419
7498   1  1 27.122910 21.413909 24.269566
7499   1  1 25.696024 19.985497 25.698497
7500   1  1 27.124243 21.413432 27.127145
7501   1  1 25.696019 19.985085 28.555073
7502   1  1 27.123433 21.412479 29.984520
7504   1  1 27.122647 21.411477 32.840529
7532   1  1 27.123818 24.265515 15.698162
7533   1  1 25.694875 22.834677 17.123461
7534   1  1 27.125713 24.260617 18.549107
7535   1  1 25.688244 22.832148 19.976266
7536   1  1 27.108464 24.257671 21.398154
7537   1  1 25.690057 22.835710 22.840574
7538   1  1 27.116216 24.262613 24.271088
7539   1  1 25.692588 22.836812 25.701596
7540   1  1 27.120793 24.263877 27.132685
7541   1  1 25.694410 22.837865 28.558499
7542   1  1 27.123563 24.268882 29.983601
7543   1  1 25.694257 22.838408 31.413566
7544   1  1 27.122126 24.264914 32.842510
7546   1  1 27.122606 24.265750 35.696252
7572   1  1 27.121443 27.121280 15.699750
7573   1  1 25.688113 25.687002 17.120155
7574   1  1 27.108538 27.108814 18.545773
7575   1  1 25.650853 25.652751 19.941709
7576   1  1 27.016713 27.024304 21.313562
7577   1  1 25.665698 25.669666 22.842321
7578   1  1 27.079532 27.073643 24.306579
7579   1  1 25.676333 25.677674 25.715947
7580   1  1 27.125200 27.134114 27.117877
7581   1  1 25.694464 25.696554 28.555342
7582   1  1 27.120434 27.117945 29.989921
7583   1  1 25.693512 25.691216 31.416317
7584   1  1 27.123271 27.122062 32.841334
7585   1  1 25.693968 25.692605 34.270100
7586   1  1 27.123210 27.122681 35.695114
7588   1  1 27.123810 27.123633 38.549065
7611   1  1 25.695093 28.551581 14.272854
7612   1  1 27.123168 29.979563 15.701344
7613   1  1 25.690146 28.550648 17.123629
7614   1  1 27.116704 29.980928 18.550642
7615   1  1 25.666052 28.552468 19.958541
7616   1  1 27.080338 30.016158 21.363033
7617   1  1 25.664404 28.542366 22.832311
7618   1  1 27.162924 29.980143 24.270691
7619   1  1 25.689382 28.557703 25.693345
7620   1  1 27.080084 29.943868 27.178590
7621   1  1 25.676422 28.534379 28.575004
7622   1  1 27.116370 29.978842 29.991146
7623   1  1 25.692075 28.547774 31.417246
7624   1  1 27.122688 29.979916 32.840163
7625   1  1 25.694904 28.550333 34.268712
7626   1  1 27.123670 29.979742 35.694251
7627   1  1 25.695352 28.551331 37.122337
7628   1  1 27.124042 29.979870 38.548733
7651   1  1 25.695962 31.408431 14.273276
7652   1  1 27.124702 32.836697 15.700964
7653   1  1 25.693054 31.411065 17.124862
7654   1  1 27.121825 32.841496 18.552180
7655   1  1 25.677201 31.424930 19.966687
7656   1  1 27.126594 32.825968 21.423692
7657   1  1 25.690096 31.401967 22.847856
7658   1  1 27.081212 32.886480 24.234647
7659   1  1 25.665127 31.417127 25.708701
7660   1  1 27.017954 32.935955 27.227833
7661   1  1 25.666530 31.407073 28.582767
7662   1  1 27.109303 32.851380 29.995550
7663   1  1 25.690222 31.408773 31.417839
7664   1  1 27.121954 32.838692 32.841093
7665   1  1 25.694927 31.407920 34.268376
7666   1  1 27.123893 32.836339 35.694522
7667   1  1 25.695730 31.407908 37.122084
7668   1  1 27.124289 32.836013 38.548827
7692   1  1 27.124579 35.692823 15.700621
7693   1  1 25.695361 34.267076 17.126329
7694   1  1 27.125610 35.690798 18.558166
7695   1  1 25.696116 34.262886 19.986111
7696   1  1 27.122853 35.696494 21.408230
7697   1  1 25.678214 34.281985 22.825007
7698   1  1 27.118459 35.697776 24.269661
7699   1  1 25.667690 34.289918 25.698413
7700   1  1 27.110571 35.702581 27.142600
7701   1  1 25.652187 34.307213 28.599353
7702   1  1 27.127522 35.699615 29.991641
7703   1  1 25.689024 34.273020 31.420783
7704   1  1 27.125448 35.694523 32.842395
7705   1  1 25.695257 34.265733 34.269145
7706   1  1 27.124619 35.692728 35.695421
7707   1  1 25.696040 34.264328 37.122245
7708   1  1 27.124494 35.692039 38.549173
7732   1  1 27.124251 38.548426 15.701190
7733   1  1 25.696690 37.120077 17.128508
7734   1  1 27.124892 38.548564 18.555844
7735   1  1 25.696579 37.121955 19.982246
7736   1  1 27.126306 38.547379 21.412979
7737   1  1 25.695047 37.123027 22.838883
7738   1  1 27.125391 38.546581 24.270589
7739   1  1 25.692572 37.124150 25.699739
7740   1  1 27.123950 38.547966 27.129351
7741   1  1 25.690476 37.127677 28.564026
7742   1  1 27.126430 38.549934 29.985453
7743   1  1 25.697206 37.125097 31.416905
7744   1  1 27.125533 38.550750 32.842107
7745   1  1 25.696909 37.121726 34.269116
7746   1  1 27.124434 38.549105 35.695807
7774   1  1 27.124706 41.403132 18.557079
7775   1  1 25.697597 39.975538 19.984898
7776   1  1 27.126052 41.401821 21.413814
7777   1  1 25.698345 39.974645 22.841429
7778   1  1 27.126397 41.401212 24.270137
7779   1  1 25.697942 39.974764 25.698360
7780   1  1 27.126143 41.401767 27.126383
7781   1  1 25.697454 39.976173 28.555870
7782   1  1 27.126120 41.403038 29.982674
7783   1  1 25.697961 39.976945 31.412055
7784   1  1 27.125093 41.404193 32.839302
7785   1  1 25.696647 39.977184 34.267878
7817   1  1 25.698304 42.829187 22.842097
7818   1  1 27.126190 44.256438 24.270024
7819   1  1 25.698536 42.829191 25.697832
7820   1  1 27.126185 44.256624 27.125621
7821   1  1 25.698259 42.829702 28.553733
7822   1  1 27.125752 44.257157 29.981387
7823   1  1 25.697581 42.830372 31.409816
8254   1  1 29.979892 18.557894 18.557671
8256   1  1 29.979737 18.559435 21.413923
8257   1  1 28.552027 17.131871 22.841807
8258   1  1 29.979706 18.560532 24.269220
8259   1  1 28.552195 17.132172 25.697603
8260   1  1 29.979581 18.560141 27.125599
8261   1  1 28.552087 17.131789 28.553753
8262   1  1 29.979571 18.559141 29.982287
8292   1  1 29.979940 21.410233 15.699021
8293   1  1 28.551857 19.983612 17.128142
8294   1  1 29.979795 21.411234 18.555802
8295   1  1 28.551774 19.985486 19.985114
8296   1  1 29.979838 21.414775 21.413407
8297   1  1 28.551241 19.987570 22.840980
8298   1  1 29.979811 21.417297 24.267121
8299   1  1 28.552229 19.987974 25.697140
8300   1  1 29.979561 21.415224 27.125972
8301   1  1 28.551905 19.986692 28.554665
8302   1  1 29.979306 21.413777 29.983692
8303   1  1 28.551462 19.985530 31.411508
8304   1  1 29.979488 21.412568 32.839789
8332   1  1 29.979839 24.266671 15.699089
8333   1  1 28.552058 22.835974 17.124507
8334   1  1 29.980037 24.262122 18.550453
8335   1  1 28.552713 22.839180 19.983324
8336   1  1 29.980258 24.272115 21.414915
8337   1  1 28.547558 22.842784 22.837555
8338   1  1 29.980206 24.271544 24.260309
8339   1  1 28.552141 22.842718 25.697058
8340   1  1 29.979868 24.268384 27.128584
8341   1  1 28.551870 22.840860 28.556474
8342   1  1 29.979408 24.271146 29.981804
8343   1  1 28.551282 22.840855 31.411871
8344   1  1 29.979274 24.267106 32.840596
8345   1  1 28.551167 22.838181 34.268951
8346   1  1 29.979617 24.266722 35.695506
8371   1  1 28.551866 25.695545 14.273086
8372   1  1 29.980131 27.124080 15.702043
8373   1  1 28.552819 25.694347 17.127009
8374   1  1 29.980504 27.125982 18.559900
8375   1  1 28.564491 25.691909 19.980422
8376   1  1 29.980927 27.174339 21.462830
8377   1  1 28.520238 25.689472 22.818445
8378   1  1 29.980610 27.021334 24.263126
8379   1  1 28.543883 25.685953 25.709811
8380   1  1 29.980506 27.144447 27.108394
8381   1  1 28.552870 25.702094 28.550580
8382   1  1 29.979942 27.122931 29.985744
8383   1  1 28.551393 25.694298 31.413564
8384   1  1 29.979650 27.124296 32.839375
8385   1  1 28.551331 25.694629 34.267998
8386   1  1 29.979669 27.123924 35.693963
8387   1  1 28.551566 25.695064 37.122118
8388   1  1 29.979892 27.124002 38.548625
8411   1  1 28.551511 28.551347 14.274563
8412   1  1 29.980368 29.977451 15.704300
8413   1  1 28.547879 28.547963 17.130261
8414   1  1 29.980884 29.970611 18.559076
8415   1  1 28.520489 28.528893 19.977779
8416   1  1 29.981488 29.973572 21.309048
8417   1  1 28.156208 28.397116 22.687540
8418   1  1 29.980927 29.239935 23.527120
8419   1  1 28.573223 28.594285 25.657558
8420   1  1 29.982680 30.722232 25.014842
8421   1  1 29.981164 29.988030 27.232821
8422   1  1 28.543893 28.541238 28.567635
8423   1  1 29.980891 29.990495 29.982671
8424   1  1 28.552048 28.553089 31.411714
8425   1  1 29.980429 29.983122 32.836939
8426   1  1 28.551945 28.552353 34.266265
8427   1  1 29.980196 29.980776 35.693026
8428   1  1 28.551909 28.551915 37.121072
8429   1  1 29.980126 29.980160 38.548199
8451   1  1 29.980367 32.835858 12.847385
8452   1  1 28.552511 31.407234 14.275045
8453   1  1 29.980556 32.835757 15.702353
8454   1  1 28.552838 31.406820 17.130164
8455   1  1 29.981152 32.837922 18.556060
8456   1  1 28.544711 31.419269 19.974263
8457   1  1 29.981831 32.817248 21.433095
8458   1  1 28.574236 31.366444 22.884213
8459   1  1 29.982581 32.940707 24.278177
8460   1  1 28.156934 31.562881 25.854150
8461   1  1 29.982188 32.787444 27.078771
8462   1  1 28.520922 31.431851 28.563958
8463   1  1 29.981755 32.835415 29.981617
8464   1  1 28.548210 31.412417 31.411102
8465   1  1 29.981163 32.836857 32.838947
8466   1  1 28.551632 31.408852 34.266035
8467   1  1 29.980709 32.836290 35.693746
8468   1  1 28.552140 31.408090 37.121023
8469   1  1 29.980444 32.836072 38.548424
8470   1  1 28.552363 31.408033 39.975786
8491   1  1 29.980418 35.692299 12.846724
8492   1  1 28.552555 34.264195 14.274034
8493   1  1 29.980536 35.692876 15.701370
8494   1  1 28.553171 34.265216 17.128717
8495   1  1 29.981118 35.690115 18.559444
8496   1  1 28.554592 34.258548 19.990964
8497   1  1 29.981873 35.693499 21.412152
8498   1  1 28.545754 34.275095 22.831335
8499   1  1 29.982518 35.690335 24.280519
8500   1  1 28.522190 34.271452 25.722658
8501   1  1 29.982583 35.689515 27.126270
8502   1  1 28.566164 34.268954 28.560790
8503   1  1 29.982145 35.699305 29.990864
8504   1  1 28.554182 34.266281 31.414009
8505   1  1 29.981478 35.694421 32.842024
8506   1  1 28.552844 34.264688 34.267594
8507   1  1 29.980879 35.692802 35.695116
8508   1  1 28.552545 34.264088 37.121618
8509   1  1 29.980526 35.692153 38.549019
8532   1  1 28.552329 37.120634 14.273630
8533   1  1 29.980120 38.548455 15.701274
8534   1  1 28.552853 37.119594 17.129667
8535   1  1 29.980778 38.548258 18.556409
8536   1  1 28.553731 37.120434 19.984106
8537   1  1 29.981701 38.546755 21.413955
8538   1  1 28.554409 37.118510 22.843366
8539   1  1 29.982356 38.544318 24.273123
8540   1  1 28.550014 37.118161 25.703037
8541   1  1 29.982482 38.546522 27.127262
8542   1  1 28.555075 37.121554 28.557395
8543   1  1 29.982070 38.550051 29.985260
8544   1  1 28.554102 37.124723 31.416349
8545   1  1 29.981340 38.551242 32.842464
8546   1  1 28.553151 37.121853 34.269106
8547   1  1 29.980590 38.549597 35.696096
8548   1  1 28.552509 37.120583 37.122462
8573   1  1 29.980115 41.404140 15.701011
8574   1  1 28.552193 39.976370 17.128456
8575   1  1 29.980491 41.403303 18.556826
8576   1  1 28.553461 39.974994 19.985067
8577   1  1 29.981443 41.401630 21.413844
8578   1  1 28.554425 39.973219 22.842713
8579   1  1 29.982052 41.400666 24.270673
8580   1  1 28.553739 39.973199 25.699126
8581   1  1 29.982168 41.401483 27.126290
8582   1  1 28.554258 39.975085 28.555075
8583   1  1 29.981781 41.403108 29.982929
8584   1  1 28.553771 39.977213 31.412498
8585   1  1 29.981065 41.404555 32.839860
8586   1  1 28.552687 39.977758 34.268722
8587   1  1 29.980305 41.404842 35.695496
8616   1  1 28.553084 42.829828 19.985760
8617   1  1 29.981219 44.256771 21.414011
8618   1  1 28.553985 42.828738 22.842161
8619   1  1 29.981727 44.256260 24.270025
8620   1  1 28.554115 42.828694 25.698042
8621   1  1 29.981776 44.256534 27.125750
8622   1  1 28.554023 42.829463 28.553908
8623   1  1 29.981429 44.257264 29.981760
8624   1  1 28.553419 42.830600 31.410343
8625   1  1 29.980754 44.258258 32.837946
8626   1  1 28.552457 42.831549 34.266601
8660   1  1 28.553881 45.683999 25.697776
8662   1  1 28.553694 45.684285 28.553361
9055   1  1 32.835625 18.558051 18.557904
9056   1  1 31.407733 17.131435 19.986331
9057   1  1 32.835732 18.559457 21.413912
9058   1  1 31.407555 17.132304 22.841993
9059   1  1 32.835190 18.560248 24.269945
9060   1  1 31.407206 17.132600 25.697625
9061   1  1 32.834641 18.560145 27.125833
9062   1  1 31.407288 17.132182 28.553591
9063   1  1 32.835016 18.559360 29.981992
9093   1  1 32.835979 21.410669 15.699320
9094   1  1 31.407815 19.984071 17.128590
9095   1  1 32.835570 21.411189 18.555510
9096   1  1 31.407697 19.986057 19.985551
9097   1  1 32.838454 21.413282 21.411229
9098   1  1 31.408290 19.988118 22.841144
9099   1  1 32.836795 21.414969 24.269740
9100   1  1 31.407048 19.988528 25.697162
9101   1  1 32.834953 21.414599 27.126972
9102   1  1 31.406957 19.987223 28.554428
9103   1  1 32.834899 21.413944 29.983523
9104   1  1 31.407390 19.986120 31.410971
9105   1  1 32.835509 21.413091 32.839229
9132   1  1 31.408049 22.839318 14.272306
9133   1  1 32.835847 24.266410 15.699141
9134   1  1 31.407548 22.836536 17.125006
9135   1  1 32.834640 24.261408 18.549668
9136   1  1 31.407239 22.839712 19.983630
9137   1  1 32.852301 24.258562 21.398296
9138   1  1 31.412555 22.843330 22.837643
9139   1  1 32.844327 24.263686 24.271123
9140   1  1 31.407592 22.843325 25.697007
9141   1  1 32.839089 24.265214 27.132332
9142   1  1 31.407052 22.841603 28.556066
9143   1  1 32.835134 24.270746 29.982322
9144   1  1 31.407078 22.841703 31.411078
9145   1  1 32.835302 24.267606 32.840237
9146   1  1 31.407694 22.839150 34.268181
9147   1  1 32.835800 24.267326 35.695176
9172   1  1 31.408028 25.695995 14.273476
9173   1  1 32.838821 27.122089 15.700531
9174   1  1 31.407420 25.694763 17.127388
9175   1  1 32.852677 27.109575 18.546069
9176   1  1 31.396406 25.692366 19.980600
9177   1  1 32.944970 27.025294 21.313506
9178   1  1 31.440873 25.690109 22.818502
9179   1  1 32.881957 27.075084 24.306547
9180   1  1 31.416823 25.686716 25.709677
9181   1  1 32.835851 27.135764 27.117459
9182   1  1 31.406907 25.703009 28.550116
9183   1  1 32.839673 27.119761 29.989000
9184   1  1 31.407299 25.695499 31.412634
9185   1  1 32.835825 27.123906 32.840006
9186   1  1 31.407390 25.695593 34.267387
9187   1  1 32.835633 27.124154 35.694056
9188   1  1 31.407781 25.695689 37.121817
9189   1  1 32.835866 27.124233 38.548647
9211   1  1 32.836199 29.980380 12.847301
9212   1  1 31.408654 28.551647 14.274919
9213   1  1 32.837756 29.980296 15.701820
9214   1  1 31.413091 28.548426 17.130539
9215   1  1 32.845309 29.981952 18.550810
9216   1  1 31.441501 28.529457 19.977776
9217   1  1 32.882744 30.017521 21.362961
9218   1  1 31.806228 28.398680 22.687357
9219   1  1 32.800431 29.981787 24.270794
9220   1  1 31.388812 28.595519 25.657350
9221   1  1 32.882683 29.945853 27.178626
9222   1  1 31.417476 28.542223 28.567354
9223   1  1 32.845670 29.980573 29.990867
9224   1  1 31.408335 28.554029 31.411210
9225   1  1 32.838322 29.981292 32.839537
9226   1  1 31.407835 28.553121 34.265751
9227   1  1 32.836630 29.980632 35.693595
9228   1  1 31.407912 28.552361 37.120825
9229   1  1 32.836179 29.980343 38.548293
9230   1  1 31.408047 28.552340 39.975723
9251   1  1 32.836095 32.836393 12.847283
9252   1  1 31.408001 31.407462 14.275449
9253   1  1 32.836472 32.837355 15.701432
9254   1  1 31.408693 31.407236 17.130366
9255   1  1 32.840724 32.842573 18.552242
9256   1  1 31.418097 31.419923 19.974281
9257   1  1 32.837365 32.827544 21.423521
9258   1  1 31.389861 31.367599 22.884055
9259   1  1 32.883909 32.888707 24.234747
9260   1  1 31.807474 31.565241 25.854110
9261   1  1 32.946950 32.938182 27.228240
9262   1  1 31.442332 31.432907 28.563949
9263   1  1 32.854597 32.853308 29.995918
9264   1  1 31.414042 31.413277 31.410979
9265   1  1 32.840663 32.840166 32.841008
9266   1  1 31.409657 31.409461 34.265763
9267   1  1 32.837566 32.837232 35.694164
9268   1  1 31.408582 31.408433 37.120793
9269   1  1 32.836596 32.836407 38.548488
9270   1  1 31.408294 31.408198 39.975625
9291   1  1 32.836346 35.692756 12.846649
9292   1  1 31.408242 34.264575 14.274380
9293   1  1 32.836515 35.693777 15.701029
9294   1  1 31.408578 34.265684 17.128869
9295   1  1 32.836987 35.691902 18.558139
9296   1  1 31.408580 34.259218 19.990945
9297   1  1 32.841413 35.698067 21.407902
9298   1  1 31.418875 34.276105 22.831246
9299   1  1 32.846953 35.699665 24.269685
9300   1  1 31.443096 34.272711 25.722913
9301   1  1 32.855136 35.704701 27.143405
9302   1  1 31.398617 34.270046 28.561177
9303   1  1 32.837433 35.701608 29.992574
9304   1  1 31.409363 34.267205 31.414196
9305   1  1 32.838042 35.696145 32.842891
9306   1  1 31.409398 34.265325 34.267532
9307   1  1 32.837294 35.693682 35.695459
9308   1  1 31.408787 34.264450 37.121509
9309   1  1 32.836652 35.692570 38.549120
9310   1  1 31.408464 34.264079 39.975903
9332   1  1 31.408329 37.121037 14.273683
9333   1  1 32.836503 38.548833 15.701125
9334   1  1 31.408449 37.120037 17.129701
9335   1  1 32.836892 38.549070 18.555868
9336   1  1 31.409089 37.120921 19.984070
9337   1  1 32.837540 38.548512 21.412445
9338   1  1 31.410100 37.119230 22.843243
9339   1  1 32.839696 38.547809 24.270493
9340   1  1 31.415287 37.118976 25.703230
9341   1  1 32.841483 38.549260 27.130066
9342   1  1 31.409923 37.122414 28.557882
9343   1  1 32.838373 38.551368 29.986624
9344   1  1 31.409699 37.125531 31.416778
9345   1  1 32.837752 38.552051 32.843040
9346   1  1 31.409159 37.122478 34.269329
9347   1  1 32.837053 38.550101 35.696383
9348   1  1 31.408653 37.120964 37.122563
9372   1  1 31.408252 39.976487 14.273402
9373   1  1 32.836434 41.404605 15.700590
9374   1  1 31.408451 39.976366 17.128544
9375   1  1 32.836669 41.403713 18.556443
9376   1  1 31.408844 39.975386 19.984798
9377   1  1 32.836983 41.402410 21.413092
9378   1  1 31.409538 39.973609 22.842525
9379   1  1 32.837864 41.401766 24.269929
9380   1  1 31.411040 39.973603 25.699261
9381   1  1 32.838431 41.402325 27.126940
9382   1  1 31.410252 39.975528 28.555518
9383   1  1 32.837769 41.403777 29.983674
9384   1  1 31.409551 39.977719 31.413007
9385   1  1 32.837238 41.405112 32.840400
9386   1  1 31.408974 39.978151 34.269048
9387   1  1 32.836712 41.405381 35.695916
9388   1  1 31.408402 39.977069 37.123025
9414   1  1 31.408353 42.831365 17.129114
9416   1  1 31.408770 42.830070 19.985266
9417   1  1 32.836777 44.257147 21.413523
9418   1  1 31.409329 42.828908 22.841903
9419   1  1 32.837145 44.256675 24.269731
9420   1  1 31.409891 42.828829 25.698113
9421   1  1 32.837335 44.256888 27.125977
9422   1  1 31.409697 42.829657 28.554249
9423   1  1 32.837094 44.257633 29.982203
9424   1  1 31.409186 42.830921 31.410816
9425   1  1 32.836719 44.258624 32.838402
9426   1  1 31.408605 42.831963 34.267115
9458   1  1 31.409085 45.684193 22.841958
9460   1  1 31.409337 45.684060 25.697786
9461   1  1 32.836728 47.111967 27.125648
9462   1  1 31.409198 45.684403 28.553610
9464   1  1 31.408803 45.685104 31.409549
9855   1  1 35.691867 18.557688 18.557807
9857   1  1 35.691415 18.558760 21.414333
9858   1  1 34.262954 17.132114 22.842349
9859   1  1 35.690976 18.559304 24.270651
9860   1  1 34.262607 17.132341 25.697990
9861   1  1 35.690613 18.559403 27.126327
9862   1  1 34.262667 17.132118 28.553521
9863   1  1 35.690799 18.559109 29.981841
9893   1  1 35.692518 21.410523 15.699567
9894   1  1 34.263800 19.984139 17.128780
9895   1  1 35.695508 21.408898 18.553619
9896   1  1 34.264795 19.985008 19.984532
9897   1  1 35.695380 21.410457 21.412790
9898   1  1 34.264275 19.986573 22.841995
9899   1  1 35.694189 21.411738 24.271622
9900   1  1 34.263287 19.987035 25.698781
9901   1  1 35.692928 21.412395 27.128757
9902   1  1 34.262762 19.986752 28.554851
9903   1  1 35.691732 21.413157 29.984042
9904   1  1 34.263196 19.986239 31.410608
9905   1  1 35.691612 21.413191 32.838862
9933   1  1 35.695731 24.264342 15.697230
9934   1  1 34.264779 22.835764 17.124445
9935   1  1 35.711814 24.250180 18.538443
9936   1  1 34.272336 22.833135 19.976590
9937   1  1 35.708676 24.254324 21.408878
9938   1  1 34.270313 22.836997 22.840857
9939   1  1 35.704372 24.258456 24.275441
9940   1  1 34.267403 22.838327 25.701666
9941   1  1 35.700440 24.262042 27.134934
9942   1  1 34.264775 22.839775 28.557835
9943   1  1 35.693093 24.268767 29.984264
9944   1  1 34.263253 22.841439 31.411297
9945   1  1 35.692397 24.267175 32.840783
9946   1  1 34.263835 22.839649 34.267729
9947   1  1 35.692071 24.267571 35.695092
9972   1  1 34.265093 25.695162 14.272695
9973   1  1 35.695879 27.123682 15.698013
9974   1  1 34.272590 25.687806 17.120866
9975   1  1 35.709190 27.120359 18.541738
9976   1  1 34.310607 25.653651 19.941687
9977   1  1 35.705999 27.112931 21.400816
9978   1  1 34.295562 25.671094 22.842438
9979   1  1 35.701541 27.117772 24.273722
9980   1  1 34.284592 25.679418 25.715864
9981   1  1 35.698602 27.125697 27.127633
9982   1  1 34.265696 25.698730 28.554540
9983   1  1 35.701172 27.117396 29.992101
9984   1  1 34.265368 25.693998 31.414390
9985   1  1 35.694295 27.122303 32.842252
9986   1  1 34.263774 25.695459 34.267769
9987   1  1 35.692301 27.123708 35.694968
9988   1  1 34.263862 25.695912 37.121915
9989   1  1 35.691936 27.124278 38.549076
10011  1  1 35.692430 29.980852 12.846388
10012  1  1 34.265091 28.552418 14.273558
10013  1  1 35.695540 29.982278 15.698540
10014  1  1 34.271068 28.551881 17.124126
10015  1  1 35.705628 29.986526 18.545275
10016  1  1 34.296130 28.553846 19.958556
10017  1  1 35.702332 29.985126 21.405178
10018  1  1 34.298100 28.544249 22.832429
10019  1  1 35.696760 29.982164 24.270602
10020  1  1 34.272975 28.559799 25.693399
10021  1  1 35.702385 29.978921 27.136090
10022  1  1 34.285334 28.536682 28.574679
10023  1  1 35.705969 29.976740 29.996235
10024  1  1 34.268729 28.549910 31.416351
10025  1  1 35.696290 29.979857 32.843093
10026  1  1 34.264881 28.551943 34.267474
10027  1  1 35.693167 29.980253 35.695007
10028  1  1 34.264092 28.552216 37.121387
10029  1  1 35.692244 29.980318 38.548903
10030  1  1 34.263908 28.552445 39.975958
10051  1  1 35.692581 32.837176 12.846371
10052  1  1 34.264825 31.409358 14.273877
10053  1  1 35.694998 32.839726 15.698837
10054  1  1 34.268925 31.412407 17.125017
10055  1  1 35.702375 32.845845 18.548514
10056  1  1 34.285952 31.426664 19.966518
10057  1  1 35.700038 32.838387 21.412903
10058  1  1 34.273797 31.404175 22.847829
10059  1  1 35.703121 32.846691 24.267287
10060  1  1 34.299137 31.419924 25.709108
10061  1  1 35.707808 32.851485 27.141008
10062  1  1 34.297245 31.409720 28.583273
10063  1  1 35.711247 32.843578 30.000613
10064  1  1 34.272521 31.410964 31.417821
10065  1  1 35.698394 32.839550 32.844592
10066  1  1 34.266497 31.409375 34.267794
10067  1  1 35.694137 32.837488 35.695581