Generated by pymatgen.io.lammps.data.LammpsData

1268  atoms

   1  atom types

0.000000 57.106000  xlo xhi
0.000000 57.106000  ylo yhi
0.000000 57.106000  zlo zhi
0.000000 0.000000 0.000000  xy xz yz

Masses

1  55.847

Atoms

4380   1  1 15.704585 27.124831 27.126254
4382   1  1 15.704083 27.124567 29.981674
4418   1  1 15.704914 29.980623 24.271122
4420   1  1 15.704904 29.980621 27.126520
4422   1  1 15.704343 29.980623 29.981599
4460   1  1 15.704581 32.836407 27.126254
4462   1  1 15.704078 32.836674 29.981680
5136   1  1 18.558615 24.269174 21.414187
5138   1  1 18.558408 24.268525 24.269699
5140   1  1 18.558056 24.267757 27.125760
5142   1  1 18.557233 24.267020 29.982430
5144   1  1 18.556035 24.266760 32.839315
5176   1  1 18.559517 27.125258 21.415065
5177   1  1 17.131829 25.697379 22.842712
5178   1  1 18.559939 27.125087 24.271013
5179   1  1 17.131850 25.696894 25.698283
5180   1  1 18.559869 27.124248 27.126699
5181   1  1 17.131468 25.696312 28.554046
5182   1  1 18.558910 27.123624 29.982574
5183   1  1 17.130583 25.696023 31.410036
5184   1  1 18.557339 27.124122 32.838353
5186   1  1 18.556181 27.124413 35.694424
5216   1  1 18.559814 29.980624 21.415397
5217   1  1 17.132405 28.552987 22.843327
5218   1  1 18.560490 29.980621 24.271622
5219   1  1 17.132728 28.552829 25.699085
5220   1  1 18.560777 29.980620 27.127467
5221   1  1 17.132348 28.552424 28.554332
5222   1  1 18.559549 29.980621 29.982122
5223   1  1 17.131275 28.552478 31.409590
5224   1  1 18.557726 29.980624 32.837913
5226   1  1 18.556366 29.980628 35.694215
5256   1  1 18.559509 32.835987 21.415056
5257   1  1 17.132401 31.408259 22.843323
5258   1  1 18.559934 32.836151 24.271008
5259   1  1 17.132726 31.408412 25.699084
5260   1  1 18.559865 32.836988 27.126699
5261   1  1 17.132346 31.408817 28.554334
5262   1  1 18.558905 32.837615 29.982579
5263   1  1 17.131272 31.408768 31.409594
5264   1  1 18.557330 32.837123 32.838363
5266   1  1 18.556167 32.836840 35.694438
5296   1  1 18.558600 35.692060 21.414172
5297   1  1 17.131819 34.263860 22.842701
5298   1  1 18.558400 35.692702 24.269691
5299   1  1 17.131844 34.264339 25.698280
5300   1  1 18.558050 35.693468 27.125760
5301   1  1 17.131462 34.264920 28.554050
5302   1  1 18.557224 35.694207 29.982437
5303   1  1 17.130573 34.265215 31.410047
5304   1  1 18.556021 35.694474 32.839331
5338   1  1 18.557056 38.549285 24.269001
5340   1  1 18.556525 38.549917 27.125199
5341   1  1 17.130148 37.121062 28.553635
5342   1  1 18.555832 38.550540 29.981914
5344   1  1 18.555056 38.550997 32.838970
5896   1  1 21.411632 21.410671 21.412118
5898   1  1 21.410278 21.409187 24.267652
5900   1  1 21.409159 21.408078 27.124602
5902   1  1 21.407923 21.406957 29.982663
5904   1  1 21.406784 21.406040 32.841506
5936   1  1 21.412721 24.267784 21.412941
5937   1  1 19.984563 22.839482 22.840657
5938   1  1 21.411163 24.265898 24.267843
5939   1  1 19.983820 22.838439 25.696714
5940   1  1 21.410071 24.264244 27.125071
5941   1  1 19.982940 22.837460 28.553804
5942   1  1 21.408317 24.262552 29.984304
5943   1  1 19.981697 22.836548 31.411745
5944   1  1 21.406146 24.261844 32.844232
5946   1  1 21.408186 24.265808 35.697816
5974   1  1 21.415096 27.125243 18.559874
5975   1  1 19.986654 25.697254 19.986760
5976   1  1 21.414442 27.125000 21.414556
5977   1  1 19.986309 25.696789 22.842039
5978   1  1 21.414277 27.124524 24.270425
5979   1  1 19.986153 25.695737 25.697921
5980   1  1 21.414204 27.122446 27.127202
5981   1  1 19.985440 25.694452 28.554756
5982   1  1 21.412224 27.120602 29.985443
5983   1  1 19.983674 25.693786 31.412330
5984   1  1 21.409930 27.123548 32.840897
5985   1  1 19.982565 25.695327 34.268091
5986   1  1 21.409388 27.123959 35.696614
5987   1  1 19.982862 25.696012 37.123136
5988   1  1 21.411579 27.124413 38.549815
6014   1  1 21.415436 29.980624 18.560215
6015   1  1 19.987282 28.552978 19.987399
6016   1  1 21.415036 29.980621 21.415166
6017   1  1 19.987506 28.552980 22.843245
6018   1  1 21.415628 29.980619 24.271850
6019   1  1 19.988444 28.552778 25.699957
6020   1  1 21.417267 29.980618 27.129882
6021   1  1 19.987830 28.551470 28.555467
6022   1  1 21.414488 29.980619 29.982862
6023   1  1 19.985575 28.552121 31.410594
6024   1  1 21.410736 29.980621 32.839834
6025   1  1 19.983373 28.552433 34.267214
6026   1  1 21.409740 29.980624 35.696263
6027   1  1 19.983232 28.552526 37.122767
6028   1  1 21.411789 29.980627 38.549628
6054   1  1 21.415086 32.836001 18.559865
6055   1  1 19.987277 31.408270 19.987394
6056   1  1 21.414436 32.836239 21.414549
6057   1  1 19.987503 31.408262 22.843242
6058   1  1 21.414273 32.836710 24.270422
6059   1  1 19.988442 31.408459 25.699956
6060   1  1 21.414201 32.838787 27.127202
6061   1  1 19.987828 31.409767 28.555468
6062   1  1 21.412220 32.840632 29.985446
6063   1  1 19.985572 31.409121 31.410597
6064   1  1 21.409924 32.837691 32.840904
6065   1  1 19.983368 31.408815 34.267219
6066   1  1 21.409379 32.837286 35.696623
6067   1  1 19.983225 31.408729 37.122774
6068   1  1 21.411567 32.836837 38.549824
6094   1  1 21.414112 35.692149 18.558891
6095   1  1 19.986641 34.263986 19.986747
6096   1  1 21.412711 35.693444 21.412931
6097   1  1 19.986301 34.264445 22.842031
6098   1  1 21.411157 35.695327 24.267837
6099   1  1 19.986147 34.265493 25.697918
6100   1  1 21.410066 35.696979 27.125071
6101   1  1 19.985434 34.266778 28.554759
6102   1  1 21.408311 35.698673 29.984309
6103   1  1 19.983666 34.267448 31.412338
6104   1  1 21.406136 35.699385 32.844243
6105   1  1 19.982552 34.265914 34.268104
6106   1  1 21.408171 35.695426 35.697831
6107   1  1 19.982843 34.265236 37.123154
6108   1  1 21.410972 35.693575 38.550446
6136   1  1 21.411621 38.550543 21.412107
6137   1  1 19.984552 37.121739 22.840647
6138   1  1 21.410271 38.552025 24.267647
6139   1  1 19.983814 37.122779 25.696711
6140   1  1 21.409154 38.553132 27.124602
6141   1  1 19.982933 37.123759 28.553807
6142   1  1 21.407916 38.554255 29.982668
6143   1  1 19.981687 37.124673 31.411756
6144   1  1 21.406773 38.555174 32.841517
6145   1  1 19.980770 37.124678 34.269462
6146   1  1 21.407182 38.554401 35.698820
6177   1  1 19.984120 39.977810 22.840609
6178   1  1 21.411908 41.405710 24.268814
6179   1  1 19.983426 39.978539 25.696687
6180   1  1 21.411371 41.406127 27.125129
6181   1  1 19.982708 39.979204 28.553369
6182   1  1 21.410758 41.406632 29.981905
6183   1  1 19.981949 39.979844 31.410587
6184   1  1 21.410212 41.407186 32.839028
6185   1  1 19.981465 39.980147 34.267911
6658   1  1 24.267996 18.555565 24.269033
6660   1  1 24.267557 18.555549 27.125468
6662   1  1 24.266938 18.555116 29.982335
6664   1  1 24.266482 18.554254 32.839528
6696   1  1 24.267656 21.409710 21.412426
6697   1  1 22.839356 19.982299 22.840202
6698   1  1 24.265922 21.407955 24.267291
6699   1  1 22.838567 19.981687 25.696524
6700   1  1 24.264689 21.407253 27.124830
6701   1  1 22.837687 19.981031 28.553693
6702   1  1 24.263050 21.405849 29.983970
6703   1  1 22.836699 19.980071 31.411689
6704   1  1 24.261824 21.404003 32.844185
6706   1  1 24.264506 21.406041 35.699217
6732   1  1 24.269419 24.269176 15.703400
6734   1  1 24.268171 24.267784 18.557499
6735   1  1 22.840627 22.839416 19.985401
6736   1  1 24.268612 24.266313 21.413384
6737   1  1 22.837392 22.835875 22.838118
6738   1  1 24.260899 24.258501 24.262126
6739   1  1 22.835067 22.833459 25.694440
6740   1  1 24.256591 24.254241 27.121414
6741   1  1 22.833067 22.831503 28.553652
6742   1  1 24.251887 24.249513 29.988017
6743   1  1 22.830620 22.829314 31.415255
6744   1  1 24.247307 24.245810 32.858702
6745   1  1 22.829980 22.829240 34.276026
6746   1  1 24.261778 24.261845 35.699856
6747   1  1 22.836564 22.836551 37.125209
6748   1  1 24.266697 24.266762 38.549960
6772   1  1 24.270296 27.125258 15.704302
6773   1  1 22.841986 25.697255 17.131436
6774   1  1 24.269785 27.125000 18.559220
6775   1  1 22.842323 25.696752 19.987098
6776   1  1 24.271627 27.124678 21.416398
6777   1  1 22.839444 25.694569 22.839729
6778   1  1 24.264918 27.120470 24.265433
6779   1  1 22.837224 25.691550 25.695389
6780   1  1 24.262592 27.115094 27.125948
6781   1  1 22.835353 25.688294 28.556041
6782   1  1 24.256881 27.106831 29.998320
6783   1  1 22.831020 25.685836 31.420390
6784   1  1 24.259658 27.124336 32.846351
6785   1  1 22.833766 25.693582 34.272240
6786   1  1 24.265112 27.123548 35.696072
6787   1  1 22.837916 25.695328 37.123433
6788   1  1 24.267658 27.124122 38.548657
6789   1  1 22.840122 25.696328 39.976432
6790   1  1 24.268799 27.124635 41.402758
6812   1  1 24.270628 29.980623 15.704599
6813   1  1 22.842625 28.552978 17.132064
6814   1  1 24.270395 29.980621 18.559814
6815   1  1 22.843621 28.552972 19.988396
6816   1  1 24.273006 29.980619 21.417777
6817   1  1 22.842181 28.552806 22.842339
6818   1  1 24.268926 29.980618 24.269677
6819   1  1 22.843073 28.552297 25.700469
6820   1  1 24.271155 29.980617 27.136860
6821   1  1 22.842575 28.547306 28.559130
6822   1  1 24.271227 29.980617 29.981395
6823   1  1 22.838674 28.552505 31.412530
6824   1  1 24.261175 29.980619 32.844834
6825   1  1 22.835526 28.552340 34.270480
6826   1  1 24.266176 29.980621 35.695266
6827   1  1 22.838793 28.552433 37.122626
6828   1  1 24.268099 29.980623 38.548269
6829   1  1 22.840532 28.552600 39.976009
6830   1  1 24.268965 29.980624 41.402565
6852   1  1 24.270290 32.835983 15.704296
6853   1  1 22.842621 31.408269 17.132060
6854   1  1 24.269780 32.836238 18.559215
6855   1  1 22.843618 31.408269 19.988392
6856   1  1 24.271624 32.836557 21.416394
6857   1  1 22.842179 31.408431 22.842337
6858   1  1 24.264916 32.840762 24.265431
6859   1  1 22.843072 31.408938 25.700468
6860   1  1 24.262590 32.846136 27.125948
6861   1  1 22.842573 31.413929 28.559131
6862   1  1 24.256879 32.854400 29.998322
6863   1  1 22.838672 31.408732 31.412533
6864   1  1 24.259655 32.836898 32.846355
6865   1  1 22.835523 31.408902 34.270483
6866   1  1 24.265108 32.837690 35.696078
6867   1  1 22.838789 31.408813 37.122629
6868   1  1 24.267652 32.837119 38.548662
6869   1  1 22.840527 31.408650 39.976012
6870   1  1 24.268792 32.836608 41.402763
6892   1  1 24.269409 35.692054 15.703392
6893   1  1 22.841975 34.263984 17.131426
6894   1  1 24.268163 35.693443 18.557491
6895   1  1 22.842315 34.264482 19.987089
6896   1  1 24.268607 35.694911 21.413377
6897   1  1 22.839438 34.266661 22.839723
6898   1  1 24.260896 35.702721 24.262122
6899   1  1 22.837220 34.269678 25.695387
6900   1  1 24.256588 35.706980 27.121414
6901   1  1 22.835349 34.272934 28.556043
6902   1  1 24.251884 35.711709 29.988021
6903   1  1 22.831014 34.275395 31.420395
6904   1  1 24.247302 35.715415 32.858709
6905   1  1 22.833758 34.267652 34.272248
6906   1  1 24.261770 35.699383 35.699864
6907   1  1 22.837905 34.265911 37.123443
6908   1  1 24.266687 35.694468 38.549968
6909   1  1 22.840109 34.264913 39.976442
6910   1  1 24.268461 35.692746 41.403349
6934   1  1 24.267341 38.550541 18.556403
6935   1  1 22.840616 37.121805 19.985391
6936   1  1 24.267650 38.551502 21.412420
6937   1  1 22.837386 37.125343 22.838111
6938   1  1 24.265918 38.553256 24.267287
6939   1  1 22.835062 37.127758 25.694437
6940   1  1 24.264686 38.553957 27.124830
6941   1  1 22.833062 37.129714 28.553654
6942   1  1 24.263047 38.555361 29.983973
6943   1  1 22.830613 37.131904 31.415262
6944   1  1 24.261819 38.557208 32.844192
6945   1  1 22.829970 37.131981 34.276036
6946   1  1 24.264498 38.555171 35.699226
6947   1  1 22.836550 37.124674 37.125222
6948   1  1 24.267052 38.550989 38.550929
6949   1  1 22.839599 37.121572 39.977273
6975   1  1 22.840309 39.977755 19.985084
6976   1  1 24.268323 41.405519 21.413093
6977   1  1 22.839349 39.978906 22.840196
6978   1  1 24.267993 41.405634 24.269030
6979   1  1 22.838563 39.979517 25.696522
6980   1  1 24.267554 41.405650 27.125468
6981   1  1 22.837682 39.980173 28.553696
6982   1  1 24.266935 41.406083 29.982338
6983   1  1 22.836692 39.981134 31.411696
6984   1  1 24.266478 41.406944 32.839533
6985   1  1 22.836361 39.981775 34.269645
6986   1  1 24.266988 41.407183 35.695785
6987   1  1 22.838103 39.980142 37.124525
7017   1  1 22.840617 42.832508 22.841304
7018   1  1 24.268921 44.259348 24.269600
7019   1  1 22.840344 42.832580 25.697302
7020   1  1 24.268728 44.259275 27.125538
7021   1  1 22.839965 42.832764 28.553563
7022   1  1 24.268446 44.259437 29.981606
7023   1  1 22.839533 42.833181 31.410102
7024   1  1 24.268229 44.259857 32.837782
7025   1  1 22.839330 42.833664 34.266676
7456   1  1 27.124270 18.555563 21.412766
7458   1  1 27.124552 18.556128 24.269316
7459   1  1 25.696545 17.129194 25.697543
7460   1  1 27.124162 18.556622 27.125733
7461   1  1 25.696201 17.129220 28.553752
7462   1  1 27.123632 18.556277 29.982384
7464   1  1 27.123682 18.555114 32.839073
7494   1  1 27.122890 21.409186 18.555055
7495   1  1 25.695436 19.982298 19.984130
7496   1  1 27.122526 21.407953 21.410692
7497   1  1 25.695953 19.982257 22.840720
7498   1  1 27.123962 21.408715 24.268728
7499   1  1 25.695362 19.982403 25.697075
7500   1  1 27.122587 21.409481 27.125796
7501   1  1 25.694568 19.982329 28.554321
7502   1  1 27.121081 21.408367 29.984933
7503   1  1 25.693685 19.981059 31.412328
7504   1  1 27.122046 21.405848 32.842960
7505   1  1 25.694325 19.980071 34.269308
7506   1  1 27.123355 21.406956 35.698080
7508   1  1 27.124115 21.410673 38.550156
7532   1  1 27.124936 24.268525 15.703191
7533   1  1 25.695892 22.839483 17.129344
7534   1  1 27.123078 24.265897 18.555940
7535   1  1 25.693351 22.835875 19.982167
7536   1  1 27.117360 24.258501 21.405670
7537   1  1 25.695434 22.835453 22.840202
7538   1  1 27.124784 24.260844 24.269551
7539   1  1 25.691946 22.832741 25.694518
7540   1  1 27.116052 24.257715 27.122882
7541   1  1 25.689809 22.831637 28.555320
7542   1  1 27.110636 24.252946 29.995378
7543   1  1 25.686575 22.827761 31.419438
7544   1  1 27.117997 24.249513 32.854122
7545   1  1 25.690758 22.829314 34.275386
7546   1  1 27.121712 24.262551 35.697686
7547   1  1 25.694270 22.836549 37.124301
7548   1  1 27.123588 24.267020 38.548765
7549   1  1 25.695993 22.839719 39.976528
7550   1  1 27.124403 24.268632 41.402650
7570   1  1 27.126081 27.125190 12.849456
7571   1  1 25.697946 25.697379 14.276616
7572   1  1 27.126249 27.125087 15.704722
7573   1  1 25.697272 25.696790 17.131090
7574   1  1 27.125660 27.124524 18.559054
7575   1  1 25.694960 25.694569 19.984218
7576   1  1 27.120666 27.120470 21.409689
7577   1  1 25.698595 25.693836 22.843364
7578   1  1 27.135537 27.124221 24.280304
7579   1  1 25.678287 25.674706 25.681322
7580   1  1 27.073827 27.078110 27.090281
7581   1  1 25.669270 25.663546 28.554269
7582   1  1 27.023584 27.015057 30.082429
7583   1  1 25.651419 25.648134 31.454592
7584   1  1 27.107694 27.106832 32.849128
7585   1  1 25.685623 25.685836 34.274986
7586   1  1 27.120572 27.120602 35.693779
7587   1  1 25.693684 25.693786 37.122325
7588   1  1 27.123442 27.123624 38.547087
7589   1  1 25.695979 25.696024 39.975411
7590   1  1 27.124344 27.124567 41.401909
7610   1  1 27.126361 29.980622 12.849703
7611   1  1 25.698562 28.552986 14.277191
7612   1  1 27.126859 29.980621 15.705273
7613   1  1 25.698478 28.552980 17.132287
7614   1  1 27.127085 29.980620 18.560404
7615   1  1 25.697571 28.552806 19.986955
7616   1  1 27.124910 29.980618 21.413697
7617   1  1 25.703843 28.553260 22.848612
7618   1  1 27.145127 29.980617 24.289894
7619   1  1 25.686292 28.543422 25.687823
7620   1  1 27.020110 29.980616 27.133920
7621   1  1 25.688765 28.519383 28.578257
7622   1  1 27.172996 29.980617 29.933018
7623   1  1 25.690821 28.563605 31.415191
7624   1  1 27.124619 29.980618 32.834783
7625   1  1 25.693482 28.552505 34.267332
7626   1  1 27.123154 29.980620 35.691516
7627   1  1 25.695420 28.552121 37.120424
7628   1  1 27.123896 29.980621 38.546448
7629   1  1 25.696425 28.552477 39.974718
7630   1  1 27.124420 29.980622 41.401649
7631   1  1 25.696932 28.552707 42.829643
7650   1  1 27.126081 32.836050 12.849453
7651   1  1 25.698561 31.408257 14.277189
7652   1  1 27.126249 32.836151 15.704718
7653   1  1 25.698477 31.408261 17.132285
7654   1  1 27.125660 32.836711 18.559050
7655   1  1 25.697570 31.408432 19.986953
7656   1  1 27.120666 32.840763 21.409686
7657   1  1 25.703843 31.407975 22.848611
7658   1  1 27.135537 32.837009 24.280303
7659   1  1 25.686292 31.417810 25.687822
7660   1  1 27.073828 32.883119 27.090281
7661   1  1 25.688765 31.441849 28.578258
7662   1  1 27.023585 32.946174 30.082430
7663   1  1 25.690820 31.397629 31.415192
7664   1  1 27.107694 32.854401 32.849131
7665   1  1 25.693481 31.408733 34.267334
7666   1  1 27.120572 32.840633 35.693783
7667   1  1 25.695418 31.409120 37.120426
7668   1  1 27.123442 32.837614 38.547091
7669   1  1 25.696423 31.408766 39.974720
7670   1  1 27.124344 32.836672 41.401913
7671   1  1 25.696930 31.408538 42.829645
7691   1  1 25.697942 34.263855 14.276611
7692   1  1 27.124936 35.692702 15.703185
7693   1  1 25.697268 34.264443 17.131084
7694   1  1 27.123078 35.695328 18.555934
7695   1  1 25.694958 34.266661 19.984213
7696   1  1 27.117360 35.702722 21.405665
7697   1  1 25.698593 34.267391 22.843360
7698   1  1 27.124784 35.700378 24.269548
7699   1  1 25.678286 34.286520 25.681321
7700   1  1 27.116052 35.703505 27.122882
7701   1  1 25.669269 34.297680 28.554270
7702   1  1 27.110636 35.708275 29.995381
7703   1  1 25.651418 34.313094 31.454596
7704   1  1 27.117997 35.711711 32.854128
7705   1  1 25.685620 34.275395 34.274992
7706   1  1 27.121712 35.698674 35.697693
7707   1  1 25.693680 34.267446 37.122331
7708   1  1 27.123588 35.694206 38.548771
7709   1  1 25.695975 34.265210 39.975416
7710   1  1 27.124403 35.692594 41.402655
7711   1  1 25.696802 34.264373 42.829969
7732   1  1 27.124249 38.549283 15.701843
7733   1  1 25.695888 37.121736 17.129337
7734   1  1 27.122890 38.552025 18.555048
7735   1  1 25.693347 37.125343 19.982160
7736   1  1 27.122527 38.553257 21.410687
7737   1  1 25.695432 37.125763 22.840198
7738   1  1 27.123962 38.552495 24.268725
7739   1  1 25.691944 37.128475 25.694517
7740   1  1 27.122587 38.551729 27.125796
7741   1  1 25.689808 37.129578 28.555321
7742   1  1 27.121081 38.552843 29.984936
7743   1  1 25.686572 37.133455 31.419442
7744   1  1 27.122046 38.555362 32.842965
7745   1  1 25.690755 37.131904 34.275393
7746   1  1 27.123355 38.554255 35.698087
7747   1  1 25.694266 37.124671 37.124309
7748   1  1 27.124115 38.550538 38.550161
7749   1  1 25.695989 37.121500 39.976534
7775   1  1 25.695433 39.978906 19.984124
7776   1  1 27.124270 41.405635 21.412762
7777   1  1 25.695951 39.978947 22.840715
7778   1  1 27.124552 41.405070 24.269314
7779   1  1 25.695360 39.978801 25.697073
7780   1  1 27.124162 41.404577 27.125733
7781   1  1 25.694567 39.978875 28.554323
7782   1  1 27.123632 41.404922 29.982387
7783   1  1 25.693683 39.980145 31.412332
7784   1  1 27.123682 41.406084 32.839077
7785   1  1 25.694322 39.981133 34.269313
7786   1  1 27.124120 41.406632 35.695244
7787   1  1 25.695437 39.979840 37.124045
7817   1  1 25.696698 42.832295 22.841462
7818   1  1 27.124896 44.258986 24.269657
7819   1  1 25.696544 42.832000 25.697542
7820   1  1 27.124717 44.258762 27.125579
7821   1  1 25.696199 42.831973 28.553753
7822   1  1 27.124477 44.258911 29.981543
7823   1  1 25.695858 42.832467 31.410158
7824   1  1 27.124415 44.259438 32.837566
7825   1  1 25.695918 42.833180 34.266472
7861   1  1 25.696866 45.686245 28.553458
8256   1  1 29.980708 18.555544 21.412322
8257   1  1 28.552782 17.129192 22.841309
8258   1  1 29.980971 18.556620 24.268925
8259   1  1 28.552744 17.129714 25.697506
8260   1  1 29.980626 18.557123 27.125390
8261   1  1 28.552396 17.129828 28.553622
8262   1  1 29.980284 18.556620 29.981856
8263   1  1 28.552267 17.129218 31.409815
8264   1  1 29.980553 18.555544 32.838458
8292   1  1 29.980442 21.411288 15.701310
8294   1  1 29.979843 21.408073 18.553932
8295   1  1 28.551763 19.981684 19.983339
8296   1  1 29.980068 21.407249 21.409457
8297   1  1 28.552311 19.982401 22.840128
8298   1  1 29.981031 21.409479 24.267352
8299   1  1 28.552585 19.983499 25.697349
8300   1  1 29.980625 21.410847 27.125390
8301   1  1 28.551684 19.983926 28.554333
8302   1  1 29.980220 21.409479 29.983428
8303   1  1 28.551696 19.982327 31.411446
8304   1  1 29.981188 21.407249 32.841324
8305   1  1 28.552327 19.981028 34.268323
8306   1  1 29.981419 21.408073 35.696848
8307   1  1 28.552658 19.981997 37.123289
8308   1  1 29.980825 21.411288 38.549471
8331   1  1 28.552805 22.840670 14.275365
8332   1  1 29.980999 24.267754 15.702837
8333   1  1 28.551953 22.838436 17.128599
8334   1  1 29.980308 24.264241 18.554845
8335   1  1 28.549676 22.833456 19.979839
8336   1  1 29.976649 24.254239 21.401361
8337   1  1 28.549753 22.832740 22.836713
8338   1  1 29.978116 24.257714 24.260818
8339   1  1 28.552619 22.835472 25.697384
8340   1  1 29.980623 24.263426 27.125390
8341   1  1 28.549266 22.835750 28.556748
8342   1  1 29.983132 24.257714 29.989962
8343   1  1 28.550696 22.831636 31.416203
8344   1  1 29.984602 24.254239 32.849420
8345   1  1 28.552365 22.831501 34.272941
8346   1  1 29.980947 24.264241 35.695935
8347   1  1 28.552216 22.837457 37.123062
8348   1  1 29.980259 24.267754 38.547944
8349   1  1 28.552391 22.840156 39.975840
8350   1  1 29.980213 24.268995 41.402205
8370   1  1 29.981492 27.124831 12.849371
8371   1  1 28.553521 25.696893 14.276635
8372   1  1 29.981936 27.124248 15.704650
8373   1  1 28.553158 25.695737 17.130931
8374   1  1 29.982438 27.122446 18.558979
8375   1  1 28.550624 25.691549 19.981997
8376   1  1 29.981183 27.115094 21.407362
8377   1  1 28.536556 25.674706 22.823055
8378   1  1 29.945514 27.078111 24.218594
8379   1  1 28.558780 25.687166 25.703546
8380   1  1 29.980623 27.160845 27.125390
8381   1  1 28.542368 25.662149 28.563646
8382   1  1 30.015733 27.078111 30.032186
8383   1  1 28.551745 25.663546 31.436742
8384   1  1 29.980067 27.115094 32.843419
8385   1  1 28.549975 25.688293 34.270655
8386   1  1 29.978814 27.122446 35.691802
8387   1  1 28.551261 25.694452 37.120562
8388   1  1 29.979319 27.124248 38.546131
8389   1  1 28.551973 25.696312 39.974528
8390   1  1 29.979765 27.124831 41.401410
8391   1  1 28.552349 25.697014 42.829486
8410   1  1 29.981760 29.980624 12.849690
8411   1  1 28.554324 28.552830 14.277513
8412   1  1 29.982706 29.980623 15.705557
8413   1  1 28.555193 28.552779 17.133223
8414   1  1 29.985120 29.980621 18.562041
8415   1  1 28.555704 28.552298 19.987846
8416   1  1 29.992095 29.980619 21.415924
8417   1  1 28.543056 28.543422 22.831061
8418   1  1 29.989154 29.980618 24.164875
8419   1  1 28.594995 28.572336 25.739762
8420   1  1 30.723244 29.980618 26.382764
8421   1  1 29.238001 29.980615 27.868015
8422   1  1 28.397134 28.155117 28.708879
8423   1  1 29.972095 29.980618 30.085905
8424   1  1 28.527757 28.519384 31.417246
8425   1  1 29.969156 29.980619 32.834856
8426   1  1 28.546885 28.547307 34.263433
8427   1  1 29.976135 29.980621 35.688739
8428   1  1 28.550550 28.551471 37.118172
8429   1  1 29.978552 29.980623 38.545223
8430   1  1 28.551686 28.552424 39.973648
8431   1  1 29.979501 29.980624 41.401090
8432   1  1 28.552205 28.552730 42.829108
8451   1  1 29.981499 32.836412 12.849366
8452   1  1 28.554325 31.408414 14.277511
8453   1  1 29.981942 32.836994 15.704644
8454   1  1 28.555195 31.408462 17.133221
8455   1  1 29.982443 32.838793 18.558974
8456   1  1 28.555705 31.408940 19.987844
8457   1  1 29.981186 32.846140 21.407358
8458   1  1 28.543057 31.417812 22.831059
8459   1  1 29.945517 32.883121 24.218592
8460   1  1 28.594996 31.388896 25.739761
8461   1  1 29.980625 32.800385 27.125390
8462   1  1 28.397136 31.806114 28.708880
8463   1  1 30.015735 32.883122 30.032188
8464   1  1 28.527758 31.441851 31.417248
8465   1  1 29.980070 32.846140 32.843423
8466   1  1 28.546886 31.413931 34.263435
8467   1  1 29.978819 32.838793 35.691807
8468   1  1 28.550552 31.409770 37.118174
8469   1  1 29.979325 32.836994 38.546136
8470   1  1 28.551688 31.408819 39.973650
8471   1  1 29.979772 32.836412 41.401414
8472   1  1 28.552207 31.408515 42.829110
8491   1  1 29.981059 35.692235 12.848568
8492   1  1 28.553526 34.264341 14.276629
8493   1  1 29.981008 35.693476 15.702828
8494   1  1 28.553161 34.265496 17.130925
8495   1  1 29.980315 35.696987 18.554836
8496   1  1 28.550627 34.269681 19.981991
8497   1  1 29.976655 35.706986 21.401354
8498   1  1 28.536558 34.286522 22.823052
8499   1  1 29.978120 35.703508 24.260814
8500   1  1 28.558781 34.274060 25.703545
8501   1  1 29.980626 35.697796 27.125390
8502   1  1 28.542370 34.299078 28.563647
8503   1  1 29.983136 35.703508 29.989966
8504   1  1 28.551747 34.297682 31.436746
8505   1  1 29.984607 35.706986 32.849427
8506   1  1 28.549978 34.272938 34.270660
8507   1  1 29.980955 35.696987 35.695944
8508   1  1 28.551265 34.266781 37.120568
8509   1  1 29.980269 35.693476 38.547953
8510   1  1 28.551977 34.264923 39.974534
8511   1  1 29.980223 35.692235 41.402213
8512   1  1 28.552354 34.264221 42.829491
8532   1  1 28.552810 37.120549 14.275359
8533   1  1 29.980451 38.549925 15.701301
8534   1  1 28.551957 37.122783 17.128592
8535   1  1 29.979851 38.553140 18.553923
8536   1  1 28.549680 37.127762 19.979833
8537   1  1 29.980073 38.553962 21.409450
8538   1  1 28.549756 37.128477 22.836709
8539   1  1 29.981035 38.551732 24.267348
8540   1  1 28.552620 37.125744 25.697383
8541   1  1 29.980628 38.550363 27.125390
8542   1  1 28.549268 37.125466 28.556750
8543   1  1 29.980224 38.551732 29.983432
8544   1  1 28.550698 37.129581 31.416208
8545   1  1 29.981194 38.553962 32.841331
8546   1  1 28.552369 37.129718 34.272948
8547   1  1 29.981426 38.553140 35.696857
8548   1  1 28.552220 37.123762 37.123069
8549   1  1 29.980834 38.549925 38.549479
8550   1  1 28.552396 37.121064 39.975847
8574   1  1 28.551936 39.978542 17.128204
8575   1  1 29.980379 41.406134 18.556140
8576   1  1 28.551766 39.979520 19.983333
8577   1  1 29.980713 41.405655 21.412317
8578   1  1 28.552314 39.978803 22.840123
8579   1  1 29.980974 41.404579 24.268922
8580   1  1 28.552586 39.977705 25.697347
8581   1  1 29.980629 41.404075 27.125390
8582   1  1 28.551685 39.977278 28.554334
8583   1  1 29.980287 41.404579 29.981859
8584   1  1 28.551698 39.978877 31.411451
8585   1  1 29.980558 41.405655 32.838464
8586   1  1 28.552330 39.980176 34.268328
8587   1  1 29.980902 41.406134 35.694640
8588   1  1 28.552661 39.979207 37.123294
8618   1  1 28.552784 42.832001 22.841306
8619   1  1 29.980820 44.258764 24.269476
8620   1  1 28.552745 42.831480 25.697505
8621   1  1 29.980629 44.258553 27.125390
8622   1  1 28.552397 42.831365 28.553624
8623   1  1 29.980443 44.258764 29.981304
8624   1  1 28.552269 42.831975 31.409818
8625   1  1 29.980489 44.259279 32.837290
8626   1  1 28.552463 42.832766 34.266045
8660   1  1 28.552833 45.686009 25.697593
8662   1  1 28.552664 45.685979 28.553357
8664   1  1 28.552565 45.686246 31.409152
9057   1  1 32.837575 18.555106 21.411698
9058   1  1 31.408992 17.129214 22.840961
9059   1  1 32.837619 18.556271 24.268392
9060   1  1 31.408858 17.129826 25.697157
9061   1  1 32.837086 18.556618 27.125047
9062   1  1 31.408509 17.129712 28.553275
9063   1  1 32.836699 18.556123 29.981469
9064   1  1 31.408477 17.129188 31.409475
9065   1  1 32.836988 18.555555 32.838024
9093   1  1 32.837148 21.410661 15.700615
9095   1  1 32.837902 21.406947 18.552691
9096   1  1 31.408935 19.981023 19.982453
9097   1  1 32.839206 21.405842 21.407814
9098   1  1 31.409558 19.982324 22.839331
9099   1  1 32.840166 21.408363 24.265844
9100   1  1 31.409567 19.983924 25.696447
9101   1  1 32.838658 21.409478 27.124985
9102   1  1 31.408665 19.983497 28.553433
9103   1  1 32.837285 21.408711 29.982056
9104   1  1 31.408943 19.982398 31.410656
9105   1  1 32.838725 21.407947 32.840094
9106   1  1 31.409498 19.981679 34.267447
9107   1  1 32.838368 21.409177 35.695735
9109   1  1 32.837014 21.411915 38.548942
9132   1  1 31.408872 22.840151 14.274936
9133   1  1 32.837666 24.267014 15.702011
9134   1  1 31.409043 22.837453 17.127715
9135   1  1 32.839539 24.262547 18.553089
9136   1  1 31.408889 22.831498 19.977836
9137   1  1 32.843251 24.249510 21.396654
9138   1  1 31.410554 22.831634 22.834575
9139   1  1 32.850609 24.252944 24.255400
9140   1  1 31.411981 22.835748 25.694031
9141   1  1 32.845191 24.257714 27.127898
9142   1  1 31.408628 22.835471 28.553397
9143   1  1 32.836460 24.260842 29.981231
9144   1  1 31.411497 22.832738 31.414069
9145   1  1 32.843888 24.258498 32.845114
9146   1  1 31.411578 22.833453 34.270944
9147   1  1 32.838173 24.265893 35.694846
9148   1  1 31.409306 22.838432 37.122185
9149   1  1 32.836318 24.268519 38.547595
9150   1  1 31.408458 22.840665 39.975419
9151   1  1 32.835810 24.269391 41.402039
9171   1  1 32.836909 27.124567 12.848868
9172   1  1 31.409283 25.696310 14.276250
9173   1  1 32.837809 27.123624 15.703689
9174   1  1 31.409992 25.694450 17.130216
9175   1  1 32.840676 27.120602 18.556997
9176   1  1 31.411276 25.688292 19.980123
9177   1  1 32.853552 27.106831 21.401649
9178   1  1 31.409502 25.663545 22.814038
9179   1  1 32.937659 27.015057 24.168350
9180   1  1 31.418877 25.662149 25.687134
9181   1  1 32.887416 27.078111 27.160500
9182   1  1 31.402465 25.687166 28.547234
9183   1  1 32.825706 27.124221 29.970478
9184   1  1 31.424691 25.674705 31.427726
9185   1  1 32.840580 27.120470 32.841095
9186   1  1 31.410626 25.691548 34.268786
9187   1  1 32.835589 27.124524 35.691730
9188   1  1 31.408096 25.695735 37.119851
9189   1  1 32.835002 27.125087 38.546062
9190   1  1 31.407735 25.696891 39.974148
9191   1  1 32.835171 27.125189 41.401327
9210   1  1 31.409053 28.552731 11.421671