Generated by pymatgen.io.lammps.data.LammpsData

1157  atoms

   1  atom types

0.000000 57.106000  xlo xhi
0.000000 57.106000  ylo yhi
0.000000 57.106000  zlo zhi
0.000000 0.000000 0.000000  xy xz yz

Masses

1  55.847

Atoms

5176   1  1 18.557902 27.123576 21.413137
5178   1  1 18.558596 27.123880 24.269819
5180   1  1 18.558482 27.123993 27.126419
5182   1  1 18.557924 27.123675 29.982884
5216   1  1 18.558850 29.979700 21.413526
5218   1  1 18.559712 29.979309 24.269734
5220   1  1 18.559630 29.979504 27.126232
5222   1  1 18.558779 29.979690 29.982531
5256   1  1 18.559157 32.835553 21.414065
5258   1  1 18.559960 32.834902 24.270062
5260   1  1 18.560036 32.834892 27.125862
5262   1  1 18.559175 32.835439 29.981938
5298   1  1 18.559678 35.690638 24.270129
5898   1  1 21.409753 21.409574 24.270677
5900   1  1 21.410095 21.409935 27.127306
5934   1  1 21.406082 24.263195 18.552210
5936   1  1 21.407682 24.263788 21.412176
5937   1  1 19.982900 22.838320 22.841908
5938   1  1 21.408727 24.264503 24.271135
5939   1  1 19.983236 22.838717 25.698665
5940   1  1 21.409486 24.265366 27.128793
5942   1  1 21.410231 24.265827 29.984801
5974   1  1 21.407936 27.122492 18.552833
5975   1  1 19.982693 25.694121 19.983464
5976   1  1 21.409606 27.120415 21.409915
5977   1  1 19.984083 25.694764 22.841400
5978   1  1 21.411317 27.121601 24.270066
5979   1  1 19.984457 25.695234 25.698833
5980   1  1 21.411187 27.122691 27.128334
5981   1  1 19.984283 25.695262 28.555628
5982   1  1 21.410975 27.121870 29.985796
5983   1  1 19.983756 25.694522 31.412198
5984   1  1 21.410442 27.122012 32.841714
6014   1  1 21.409699 29.981154 18.554211
6015   1  1 19.984279 28.551604 19.984060
6016   1  1 21.411867 29.979586 21.411621
6017   1  1 19.985984 28.550799 22.840826
6018   1  1 21.413769 29.978186 24.269298
6019   1  1 19.986220 28.551333 25.698385
6020   1  1 21.413592 29.979071 27.127731
6021   1  1 19.985672 28.551388 28.555669
6022   1  1 21.412283 29.979190 29.984980
6023   1  1 19.984805 28.551244 31.412002
6024   1  1 21.411286 29.979369 32.841041
6054   1  1 21.410972 32.838157 18.555445
6055   1  1 19.985159 31.408449 19.984918
6056   1  1 21.412655 32.836401 21.413387
6057   1  1 19.986668 31.407279 22.841715
6058   1  1 21.414430 32.835324 24.270106
6059   1  1 19.987566 31.406931 25.698142
6060   1  1 21.414487 32.835443 27.126944
6061   1  1 19.986721 31.407429 28.554938
6062   1  1 21.412953 32.835978 29.984121
6063   1  1 19.985491 31.407778 31.411325
6064   1  1 21.411820 32.836291 32.840317
6094   1  1 21.412807 35.692784 18.556993
6095   1  1 19.985773 34.264231 19.985654
6096   1  1 21.413523 35.692206 21.413352
6097   1  1 19.986844 34.263370 22.842162
6098   1  1 21.414199 35.691632 24.269833
6099   1  1 19.987420 34.262888 25.697986
6100   1  1 21.414049 35.691680 27.126154
6101   1  1 19.986959 34.263198 28.554222
6102   1  1 21.413044 35.692434 29.983106
6103   1  1 19.985753 34.263889 31.410560
6137   1  1 19.986770 37.118898 22.842169
6138   1  1 21.414631 38.546651 24.269783
6139   1  1 19.987054 37.118735 25.697780
6140   1  1 21.414485 38.546817 27.125526
6141   1  1 19.986655 37.118952 28.553425
6696   1  1 24.264432 21.408882 21.411704
6698   1  1 24.265218 21.409593 24.271005
6699   1  1 22.839133 19.983428 25.698554
6700   1  1 24.266090 21.410018 27.128506
6702   1  1 24.266355 21.410408 29.984525
6734   1  1 24.250297 24.250334 18.538837
6735   1  1 22.832207 22.832841 19.981234
6736   1  1 24.251485 24.252388 21.407433
6737   1  1 22.833545 22.833663 22.842407
6738   1  1 24.255232 24.255751 24.274576
6739   1  1 22.834544 22.834475 25.701506
6740   1  1 24.258940 24.258909 27.134812
6741   1  1 22.836196 22.835974 28.558385
6742   1  1 24.265318 24.264923 29.985577
6743   1  1 22.837556 22.837249 31.413214
6744   1  1 24.263513 24.262172 32.844910
6772   1  1 24.264274 27.122317 15.697139
6773   1  1 22.832238 25.692072 17.121277
6774   1  1 24.252448 27.118880 18.541869
6775   1  1 22.828667 25.686109 19.975113
6776   1  1 24.250403 27.106799 21.396226
6777   1  1 22.832555 25.688724 22.840446
6778   1  1 24.257593 27.113370 24.272819
6779   1  1 22.834043 25.690546 25.702147
6780   1  1 24.261414 27.120356 27.130519
6781   1  1 22.836441 25.693019 28.558189
6782   1  1 24.261887 27.116817 29.990265
6783   1  1 22.836394 25.691158 31.415970
6784   1  1 24.264139 27.120451 32.843961
6785   1  1 22.836741 25.692749 34.270435
6786   1  1 24.265629 27.122076 35.696914
6812   1  1 24.265532 29.980936 15.698272
6813   1  1 22.834173 28.552562 17.122848
6814   1  1 24.257239 29.984803 18.546239
6815   1  1 22.833306 28.550854 19.978410
6816   1  1 24.259194 29.981918 21.404646
6817   1  1 22.836650 28.546555 22.837058
6818   1  1 24.263254 29.974727 24.267361
6819   1  1 22.837905 28.549687 25.699474
6820   1  1 24.265003 29.976969 27.131859
6821   1  1 22.837709 28.549444 28.558955
6822   1  1 24.263842 29.977647 29.989113
6823   1  1 22.837550 28.549624 31.415150
6824   1  1 24.265059 29.978898 32.842972
6825   1  1 22.837630 28.550651 34.269870
6826   1  1 24.266244 29.979376 35.696262
6852   1  1 24.266718 32.837958 15.699012
6853   1  1 22.836020 31.411212 17.124446
6854   1  1 24.262134 32.843036 18.550429
6855   1  1 22.835928 31.411276 19.981232
6856   1  1 24.265377 32.836769 21.413110
6857   1  1 22.839039 31.407218 22.840982
6858   1  1 24.266864 32.837568 24.268850
6859   1  1 22.841458 31.406846 25.699020
6860   1  1 24.265839 32.838763 27.130556
6861   1  1 22.839659 31.407627 28.557585
6862   1  1 24.264150 32.837754 29.988705
6863   1  1 22.838376 31.407669 31.414356
6864   1  1 24.265538 32.836976 32.842570
6865   1  1 22.838322 31.407976 34.269173
6866   1  1 24.266666 32.836274 35.695957
6893   1  1 22.838118 34.267272 17.126323
6894   1  1 24.269167 35.691527 18.557145
6895   1  1 22.839663 34.265082 19.984716
6896   1  1 24.267389 35.694017 21.409892
6897   1  1 22.840301 34.265000 22.840896
6898   1  1 24.268143 35.693488 24.268477
6899   1  1 22.841022 34.264441 25.698325
6900   1  1 24.266849 35.694577 27.127150
6901   1  1 22.839518 34.265654 28.556934
6902   1  1 24.263997 35.697310 29.988371
6903   1  1 22.838667 34.265320 31.413782
6904   1  1 24.265887 35.694764 32.842317
6905   1  1 22.838747 34.264994 34.268522
6906   1  1 24.267044 35.692924 35.695789
6934   1  1 24.268759 38.547717 18.556533
6935   1  1 22.840774 37.120560 19.984155
6936   1  1 24.269960 38.546952 21.413248
6937   1  1 22.841721 37.119775 22.841112
6938   1  1 24.270497 38.546430 24.269676
6939   1  1 22.841610 37.119844 25.697612
6940   1  1 24.270011 38.546934 27.126052
6941   1  1 22.840805 37.120592 28.554526
6942   1  1 24.268925 38.548201 29.983187
6943   1  1 22.839523 37.121822 31.412414
6944   1  1 24.268309 38.548725 32.839625
6977   1  1 22.842594 39.974082 22.842058
6978   1  1 24.270339 41.401725 24.269962
6979   1  1 22.842743 39.973986 25.697651
6980   1  1 24.270205 41.401925 27.125491
6981   1  1 22.842341 39.974504 28.553472
6982   1  1 24.269537 41.402670 29.981500
7456   1  1 27.123588 18.558211 21.413139
7458   1  1 27.123954 18.558951 24.269629
7460   1  1 27.124348 18.558885 27.125980
7462   1  1 27.123928 18.558198 29.982567
7494   1  1 27.123707 21.409968 18.554275
7495   1  1 25.694515 19.983363 19.983445
7496   1  1 27.120609 21.411413 21.410123
7497   1  1 25.694956 19.984791 22.841195
7498   1  1 27.121955 21.412960 24.269380
7499   1  1 25.695687 19.985062 25.698513
7500   1  1 27.123739 21.412729 27.127095
7501   1  1 25.695836 19.984776 28.555090
7502   1  1 27.122845 21.411790 29.984885
7504   1  1 27.122452 21.410865 32.840977
7532   1  1 27.123697 24.265454 15.698196
7533   1  1 25.694887 22.834778 17.123431
7534   1  1 27.125417 24.261078 18.549405
7535   1  1 25.687813 22.831669 19.975653
7536   1  1 27.106915 24.256384 21.397204
7537   1  1 25.689021 22.834793 22.840035
7538   1  1 27.114247 24.261182 24.270921
7539   1  1 25.691601 22.835784 25.701458
7540   1  1 27.121103 24.263411 27.130489
7541   1  1 25.694055 22.837231 28.557883
7542   1  1 27.120409 24.265348 29.986657
7543   1  1 25.692862 22.837036 31.414654
7544   1  1 27.121086 24.263629 32.843775
7546   1  1 27.122295 24.265349 35.696681
7572   1  1 27.121039 27.121269 15.699593
7573   1  1 25.688220 25.687322 17.120322
7574   1  1 27.108570 27.109831 18.546430
7575   1  1 25.652567 25.654415 19.943024
7576   1  1 27.019908 27.029994 21.319120
7577   1  1 25.664401 25.668228 22.840499
7578   1  1 27.076286 27.074622 24.303439
7579   1  1 25.674941 25.675728 25.714613
7580   1  1 27.125576 27.128332 27.115508
7581   1  1 25.693547 25.693876 28.554900
7582   1  1 27.111354 27.110260 29.997390
7583   1  1 25.689410 25.688343 31.419163
7584   1  1 27.120432 27.119901 32.843708
7585   1  1 25.692503 25.691899 34.270968
7586   1  1 27.122375 27.122095 35.695804
7588   1  1 27.123636 27.123522 38.549301
7611   1  1 25.694842 28.551529 14.272732
7612   1  1 27.122527 29.979484 15.700948
7613   1  1 25.689921 28.550733 17.123821
7614   1  1 27.116413 29.980942 18.551309
7615   1  1 25.666972 28.552404 19.959696
7616   1  1 27.083662 30.012379 21.371762
7617   1  1 25.659059 28.527940 22.819469
7618   1  1 27.094555 29.950045 24.248041
7619   1  1 25.684475 28.547802 25.700955
7620   1  1 27.107697 29.953173 27.154235
7621   1  1 25.684825 28.539397 28.567116
7622   1  1 27.115768 29.979489 29.993841
7623   1  1 25.690551 28.548513 31.417866
7624   1  1 27.121233 29.978957 32.842435
7625   1  1 25.693546 28.550150 34.269555
7626   1  1 27.122947 29.979303 35.695132
7627   1  1 25.694917 28.551189 37.122620
7628   1  1 27.123859 29.979762 38.548945
7651   1  1 25.695675 31.408391 14.273102
7652   1  1 27.124267 32.836195 15.700717
7653   1  1 25.692941 31.410716 17.125141
7654   1  1 27.123481 32.837803 18.553938
7655   1  1 25.679712 31.422900 19.969425
7656   1  1 27.136221 32.819070 21.428403
7657   1  1 25.688003 31.405670 22.841780
7658   1  1 27.110331 32.856912 24.245926
7659   1  1 25.686491 31.407232 25.701325
7660   1  1 27.092290 32.868286 27.158051
7661   1  1 25.687401 31.407365 28.564502
7662   1  1 27.113922 32.847767 29.995579
7663   1  1 25.691386 31.408935 31.417034
7664   1  1 27.120893 32.837710 32.843458
7665   1  1 25.693949 31.407706 34.269207
7666   1  1 27.123031 32.836095 35.695534
7667   1  1 25.695287 31.407779 37.122417
7668   1  1 27.124068 32.835932 38.549089
7692   1  1 27.123917 35.692405 15.700417
7693   1  1 25.695741 34.265592 17.127051
7694   1  1 27.124241 35.690123 18.557248
7695   1  1 25.700109 34.259353 19.988665
7696   1  1 27.125651 35.692209 21.411028
7697   1  1 25.691261 34.270196 22.832782
7698   1  1 27.127929 35.690478 24.271033
7699   1  1 25.691135 34.269461 25.697069
7700   1  1 27.124124 35.693079 27.131685
7701   1  1 25.684393 34.277032 28.568061
7702   1  1 27.126704 35.693568 29.985951
7703   1  1 25.691262 34.269744 31.417858
7704   1  1 27.122088 35.694560 32.843865
7705   1  1 25.694042 34.265232 34.269593
7706   1  1 27.123142 35.692852 35.696255
7707   1  1 25.695502 34.264224 37.122585
7708   1  1 27.124175 35.692042 38.549495
7732   1  1 27.123416 38.548655 15.700526
7733   1  1 25.695874 37.119658 17.128390
7734   1  1 27.122177 38.550023 18.554326
7735   1  1 25.697083 37.119900 19.983884
7736   1  1 27.124109 38.548768 21.412559
7737   1  1 25.698352 37.118995 22.841152
7738   1  1 27.125561 38.547110 24.270524
7739   1  1 25.698084 37.118904 25.698421
7740   1  1 27.124584 38.548063 27.127081
7741   1  1 25.696165 37.121195 28.557173
7742   1  1 27.123350 38.550357 29.984408
7743   1  1 25.696275 37.121704 31.413255
7744   1  1 27.121051 38.552235 32.843320
7745   1  1 25.694940 37.121457 34.269145
7746   1  1 27.122934 38.549682 35.696344
7774   1  1 27.123941 41.403769 18.556873
7775   1  1 25.696444 39.975735 19.985020
7776   1  1 27.125409 41.402202 21.413994
7777   1  1 25.697802 39.974481 22.841972
7778   1  1 27.126345 41.401364 24.270182
7779   1  1 25.697892 39.974372 25.697926
7780   1  1 27.126052 41.401771 27.125753
7781   1  1 25.697080 39.975398 28.554228
7782   1  1 27.124985 41.403119 29.982041
7783   1  1 25.696068 39.976673 31.411056
7784   1  1 27.123574 41.404668 32.839273
7785   1  1 25.694950 39.977514 34.268028
7817   1  1 25.698093 42.829235 22.842297
7818   1  1 27.126244 44.256402 24.270083
7819   1  1 25.698327 42.829116 25.697726
7820   1  1 27.126188 44.256536 27.125439
7821   1  1 25.697918 42.829569 28.553278
7822   1  1 27.125547 44.257157 29.981127
7823   1  1 25.697037 42.830425 31.409409
8254   1  1 29.979941 18.557895 18.557485
8256   1  1 29.979565 18.559219 21.413695
8257   1  1 28.551934 17.131721 22.841722
8258   1  1 29.979419 18.560218 24.269127
8259   1  1 28.552128 17.132028 25.697627
8260   1  1 29.979486 18.559990 27.125612
8261   1  1 28.552095 17.131698 28.553799
8262   1  1 29.979652 18.559052 29.982264
8292   1  1 29.980206 21.410735 15.699394
8293   1  1 28.551984 19.983718 17.128023
8294   1  1 29.979764 21.411575 18.555794
8295   1  1 28.551568 19.985197 19.984672
8296   1  1 29.978827 21.414187 21.412872
8297   1  1 28.550620 19.986915 22.840630
8298   1  1 29.978474 21.416263 24.266820
8299   1  1 28.551760 19.987388 25.697174
8300   1  1 29.978876 21.414875 27.125977
8301   1  1 28.551697 19.986369 28.554810
8302   1  1 29.979234 21.413318 29.983917
8303   1  1 28.551459 19.985230 31.411605
8304   1  1 29.979664 21.412038 32.840142
8332   1  1 29.979647 24.266931 15.699464
8333   1  1 28.552304 22.836644 17.125051
8334   1  1 29.979941 24.264448 18.552625
8335   1  1 28.551865 22.838802 19.982686
8336   1  1 29.977036 24.272022 21.414230
8337   1  1 28.545449 22.840999 22.836644
8338   1  1 29.975524 24.269660 24.258617
8339   1  1 28.550877 22.841419 25.696667
8340   1  1 29.977015 24.267391 27.128794
8341   1  1 28.550596 22.839715 28.557185
8342   1  1 29.978869 24.268399 29.984402
8343   1  1 28.550775 22.839381 31.413168
8344   1  1 29.979502 24.265903 32.841695
8345   1  1 28.551120 22.837663 34.269389
8346   1  1 29.979619 24.266236 35.695932
8371   1  1 28.551625 25.695383 14.272981
8372   1  1 29.979089 27.123935 15.701743
8373   1  1 28.552028 25.694422 17.127181
8374   1  1 29.977311 27.126586 18.560680
8375   1  1 28.562493 25.693464 19.981918
8376   1  1 29.970780 27.181340 21.468508
8377   1  1 28.516047 25.685983 22.817880
8378   1  1 29.964806 27.049528 24.236758
8379   1  1 28.546395 25.688097 25.702921
8380   1  1 29.967582 27.130735 27.125757
8381   1  1 28.546771 25.694644 28.557767
8382   1  1 29.980706 27.118148 29.990997
8383   1  1 28.549997 25.691442 31.416457
8384   1  1 29.979195 27.121877 32.841758
8385   1  1 28.550645 25.693442 34.269146
8386   1  1 29.979385 27.122988 35.694914
8387   1  1 28.551337 25.694755 37.122485
8388   1  1 29.979809 27.123796 38.548883
8411   1  1 28.551112 28.551288 14.274272
8412   1  1 29.979472 29.977627 15.703533
8413   1  1 28.546731 28.548183 17.129695
8414   1  1 29.978178 29.971183 18.558577
8415   1  1 28.520145 28.532262 19.979252
8416   1  1 29.978641 29.963879 21.336121
8417   1  1 28.192165 28.391887 22.691704
8418   1  1 29.893421 29.388946 23.639378
8419   1  1 28.583546 28.591398 25.658816
8420   1  1 30.410941 30.694161 25.258920
8421   1  1 29.957503 29.950695 27.326165
8422   1  1 28.523281 28.521310 28.587460
8423   1  1 29.977877 29.980915 29.995204
8424   1  1 28.547978 28.548028 31.416648
8425   1  1 29.979416 29.980427 32.840704
8426   1  1 28.550747 28.550756 34.268010
8427   1  1 29.979875 29.980124 35.694154
8428   1  1 28.551567 28.551497 37.121595
8429   1  1 29.980054 29.980059 38.548458
8451   1  1 29.980294 32.835862 12.847256
8452   1  1 28.552170 31.407239 14.274674
8453   1  1 29.980030 32.835570 15.701977
8454   1  1 28.552016 31.406198 17.129544
8455   1  1 29.979619 32.836101 18.555630
8456   1  1 28.547800 31.411723 19.980422
8457   1  1 29.979590 32.817454 21.424587
8458   1  1 28.595137 31.359370 22.907859
8459   1  1 30.014945 32.906459 24.280366
8460   1  1 28.349561 31.442816 25.727116
8461   1  1 30.020569 32.798050 27.096980
8462   1  1 28.526437 31.434419 28.572911
8463   1  1 29.978732 32.840839 29.996817
8464   1  1 28.547691 31.410414 31.416637
8465   1  1 29.979690 32.838481 32.843669
8466   1  1 28.550953 31.408185 34.268144
8467   1  1 29.980151 32.836752 35.695036
8468   1  1 28.551841 31.407919 37.121605
8469   1  1 29.980314 32.836151 38.548688
8470   1  1 28.552311 31.408004 39.975903
8491   1  1 29.980304 35.692226 12.846623
8492   1  1 28.552253 34.264046 14.273851
8493   1  1 29.979704 35.692910 15.700819
8494   1  1 28.552083 34.264294 17.128176
8495   1  1 29.977966 35.692656 18.555645
8496   1  1 28.552575 34.257913 19.988037
8497   1  1 29.970017 35.706040 21.398565
8498   1  1 28.555827 34.266878 22.836330
8499   1  1 29.979113 35.703546 24.270620
8500   1  1 28.554855 34.258210 25.711224
8501   1  1 29.978009 35.700521 27.132515
8502   1  1 28.565609 34.260143 28.554590
8503   1  1 29.965855 35.712982 30.005475
8504   1  1 28.549687 34.267641 31.419468
8505   1  1 29.977265 35.698350 32.847014
8506   1  1 28.550855 34.265385 34.269951
8507   1  1 29.979678 35.693824 35.696448
8508   1  1 28.551905 34.264271 37.122290
8509   1  1 29.980294 35.692318 38.549279
8532   1  1 28.551922 37.120589 14.273329
8533   1  1 29.979349 38.549176 15.700221
8534   1  1 28.550800 37.120672 17.127935
8535   1  1 29.978417 38.551452 18.553076
8536   1  1 28.547789 37.125201 19.979099
8537   1  1 29.979911 38.550154 21.410737
8538   1  1 28.551323 37.123171 22.840500
8539   1  1 29.984384 38.545955 24.271684
8540   1  1 28.552440 37.121070 25.700792
8541   1  1 29.983798 38.547328 27.127591
8542   1  1 28.550743 37.124715 28.557858
8543   1  1 29.978573 38.553024 29.988187
8544   1  1 28.545394 37.129458 31.421158
8545   1  1 29.977581 38.554685 32.845897
8546   1  1 28.549927 37.123522 34.271158
8547   1  1 29.979370 38.550642 35.697185
8548   1  1 28.551694 37.120878 37.122990
8573   1  1 29.979742 41.404789 15.700384
8574   1  1 28.551008 39.977509 17.127325
8575   1  1 29.979939 41.404255 18.556128
8576   1  1 28.551713 39.976627 19.983903
8577   1  1 29.981257 41.402238 21.413307
8578   1  1 28.554158 39.974198 22.842379
8579   1  1 29.983020 41.400579 24.270447
8580   1  1 28.554759 39.973685 25.698563
8581   1  1 29.982844 41.401164 27.126275
8582   1  1 28.553462 39.975544 28.554639
8583   1  1 29.980910 41.403455 29.983346
8584   1  1 28.550851 39.978536 31.413293
8585   1  1 29.979730 41.405552 32.840476
8586   1  1 28.550613 39.979003 34.269675
8587   1  1 29.979611 41.405624 35.695966
8616   1  1 28.552805 42.830136 19.985754
8617   1  1 29.981244 44.256848 21.414037
8618   1  1 28.554083 42.828787 22.842262
8619   1  1 29.981999 44.256140 24.270021
8620   1  1 28.554507 42.828540 25.697919
8621   1  1 29.981959 44.256333 27.125718
8622   1  1 28.553871 42.829333 28.553612
8623   1  1 29.981214 44.257246 29.981701
8624   1  1 28.552630 42.830805 31.410186
8625   1  1 29.980476 44.258428 32.837896
8626   1  1 28.551891 42.831968 34.266677
8660   1  1 28.553986 45.683924 25.697760
8662   1  1 28.553689 45.684234 28.553255
9055   1  1 32.835644 18.558244 18.557885
9056   1  1 31.407744 17.131417 19.986224
9057   1  1 32.835526 18.559487 21.413783
9058   1  1 31.407491 17.132228 22.841907
9059   1  1 32.834944 18.560280 24.269725
9060   1  1 31.407170 17.132562 25.697573
9061   1  1 32.834539 18.560233 27.125559
9062   1  1 31.407345 17.132178 28.553544
9063   1  1 32.835128 18.559397 29.981803
9093   1  1 32.836035 21.411525 15.699998
9094   1  1 31.407968 19.984459 17.128687
9095   1  1 32.834991 21.412357 18.556268
9096   1  1 31.407419 19.986099 19.985391
9097   1  1 32.836974 21.413714 21.411440
9098   1  1 31.407609 19.987788 22.840923
9099   1  1 32.835529 21.415255 24.269105
9100   1  1 31.406538 19.988393 25.696910
9101   1  1 32.834138 21.414980 27.126027
9102   1  1 31.406903 19.987210 28.554219
9103   1  1 32.835018 21.413884 29.983141
9104   1  1 31.407610 19.985957 31.410923
9105   1  1 32.835984 21.412735 32.839353
9132   1  1 31.408104 22.839544 14.272581
9133   1  1 32.835223 24.267197 15.699980
9134   1  1 31.407546 22.838203 17.126482
9135   1  1 32.832120 24.266289 18.554315
9136   1  1 31.405842 22.840783 19.984389
9137   1  1 32.845740 24.261912 21.401465
9138   1  1 31.409613 22.842684 22.837514
9139   1  1 32.840633 24.265037 24.268708
9140   1  1 31.405422 22.843223 25.695913
9141   1  1 32.836193 24.265986 27.129406
9142   1  1 31.406492 22.841262 28.555783
9143   1  1 32.835693 24.269173 29.983242
9144   1  1 31.407569 22.840618 31.411903
9145   1  1 32.836412 24.266929 32.840701
9146   1  1 31.408117 22.838728 34.268464
9147   1  1 32.836178 24.266878 35.695512
9172   1  1 31.407669 25.695946 14.273474
9173   1  1 32.837129 27.122307 15.700671
9174   1  1 31.405759 25.695860 17.128507
9175   1  1 32.845654 27.113235 18.549046
9176   1  1 31.393320 25.700064 19.988050
9177   1  1 32.910029 27.059700 21.346433
9178   1  1 31.428043 25.691179 22.821922
9179   1  1 32.878235 27.080278 24.287185
9180   1  1 31.407189 25.685467 25.701602
9181   1  1 32.840557 27.122748 27.124675
9182   1  1 31.406267 25.697955 28.553649
9183   1  1 32.844243 27.118291 29.990283
9184   1  1 31.408770 25.693614 31.414356
9185   1  1 32.836586 27.122293 32.841866
9186   1  1 31.407730 25.694418 34.268456
9187   1  1 32.835789 27.123315 35.695065
9188   1  1 31.407813 25.695282 37.122225
9189   1  1 32.835886 27.124034 38.548950
9211   1  1 32.836050 29.980297 12.847237
9212   1  1 31.408073 28.551582 14.274645
9213   1  1 32.836623 29.979938 15.701675
9214   1  1 31.410086 28.548839 17.129968
9215   1  1 32.840945 29.980887 18.551312
9216   1  1 31.429198 28.534332 19.979824
9217   1  1 32.864616 30.008944 21.374628
9218   1  1 31.691261 28.438984 22.733666
9219   1  1 32.801419 30.011725 24.287907
9220   1  1 31.397565 28.484383 25.664266
9221   1  1 32.770118 30.029074 27.085833
9222   1  1 31.431656 28.532092 28.570920
9223   1  1 32.836437 29.982964 29.993687
9224   1  1 31.409024 28.550045 31.415367
9225   1  1 32.837071 29.980847 32.842850
9226   1  1 31.407709 28.551590 34.267742
9227   1  1 32.836357 29.980398 35.694798
9228   1  1 31.407815 28.551920 37.121474
9229   1  1 32.836101 29.980290 38.548616
9230   1  1 31.408017 28.552274 39.975868
9251   1  1 32.836091 32.836323 12.847286
9252   1  1 31.407796 31.407525 14.275256
9253   1  1 32.836235 32.837080 15.701521
9254   1  1 31.407610 31.407057 17.130004
9255   1  1 32.839867 32.841719 18.551878
9256   1  1 31.413352 31.415438 19.976363
9257   1  1 32.842897 32.837290 21.402701
9258   1  1 31.391541 31.378570 22.876250
9259   1  1 32.943003 32.949813 23.994735
9260   1  1 32.032454 31.992562 25.789703
9261   1  1 32.987244 32.997372 27.483972
9262   1  1 31.432006 31.439881 28.588315
9263   1  1 32.859890 32.861802 30.021851
9264   1  1 31.411586 31.413809 31.418622
9265   1  1 32.841795 32.842470 32.845008
9266   1  1 31.409155 31.409808 34.267909
9267   1  1 32.837732 32.837863 35.695133
9268   1  1 31.408434 31.408553 37.121344
9269   1  1 32.836598 32.836558 38.548708
9270   1  1 31.408260 31.408233 39.975734
9291   1  1 32.836309 35.692651 12.846588
9292   1  1 31.408058 34.264471 14.274301
9293   1  1 32.836282 35.693955 15.700352
9294   1  1 31.407622 34.265683 17.128216
9295   1  1 32.836790 35.695315 18.553261
9296   1  1 31.405150 34.264590 19.984156
9297   1  1 32.841136 35.712781 21.389044
9298   1  1 31.393153 34.309138 22.799559
9299   1  1 32.857189 35.698952 24.250095
9300   1  1 31.443736 34.338054 25.714156
9301   1  1 32.861395 35.703781 27.163208
9302   1  1 31.376755 34.314215 28.603880
9303   1  1 32.839158 35.721356 30.016420
9304   1  1 31.406736 34.275707 31.423799
9305   1  1 32.838982 35.701108 32.848931
9306   1  1 31.408849 34.267392 34.270014
9307   1  1 32.837480 35.694933 35.696886
9308   1  1 31.408603 34.264938 37.122068
9309   1  1 32.836678 35.692741 38.549370
9310   1  1 31.408434 34.264150 39.976007
9332   1  1 31.408031 37.121076 14.273304
9333   1  1 32.836241 38.549944 15.699653
9334   1  1 31.407350 37.121883 17.127243
9335   1  1 32.836749 38.553010 18.551492
9336   1  1 31.406226 37.128062 19.976128
9337   1  1 32.839367 38.551663 21.408051
9338   1  1 31.411061 37.124841 22.836066
9339   1  1 32.841899 38.547010 24.267580
9340   1  1 31.421312 37.119706 25.702679
9341   1  1 32.842856 38.548316 27.133435
9342   1  1 31.409089 37.128012 28.565572
9343   1  1 32.839618 38.554780 29.991496
9344   1  1 31.405203 37.133702 31.425700
9345   1  1 32.837217 38.556670 32.847867
9346   1  1 31.407810 37.125107 34.272229
9347   1  1 32.836779 38.551684 35.697977
9348   1  1 31.408294 37.121470 37.123154
9372   1  1 31.408005 39.976907 14.272851
9373   1  1 32.836291 41.405416 15.699782
9374   1  1 31.407754 39.978190 17.126674
9375   1  1 32.836827 41.404918 18.555364
9376   1  1 31.408549 39.977414 19.982726
9377   1  1 32.837731 41.402929 21.412208
9378   1  1 31.410533 39.974371 22.840841
9379   1  1 32.838429 41.401410 24.269386
9380   1  1 31.412993 39.972780 25.699262
9381   1  1 32.838699 41.401876 27.127756
9382   1  1 31.410356 39.975903 28.557221
9383   1  1 32.838025 41.404179 29.984681
9384   1  1 31.408323 39.979678 31.415088
9385   1  1 32.837020 41.406413 32.841449
9386   1  1 31.407715 39.980216 34.270895
9387   1  1 32.836402 41.406358 35.696651
9388   1  1 31.408032 39.977661 37.123557
9414   1  1 31.408208 42.831851 17.128749
9416   1  1 31.408803 42.830421 19.985051
9417   1  1 32.836958 44.257227 21.413461
9418   1  1 31.409689 42.828919 22.841607
9419   1  1 32.837258 44.256575 24.269670
9420   1  1 31.410416 42.828461 25.698151
9421   1  1 32.837340 44.256744 27.126166
9422   1  1 31.409712 42.829503 28.554603
9423   1  1 32.837084 44.257656 29.982328
9424   1  1 31.408805 42.831235 31.411055
9425   1  1 32.836633 44.258867 32.838414
9426   1  1 31.408189 42.832534 34.267333
9458   1  1 31.409149 45.684192 22.841957
9460   1  1 31.409417 45.683977 25.697809
9461   1  1 32.836707 47.111957 27.125675
9462   1  1 31.409170 45.684354 28.553640
9464   1  1 31.408720 45.685147 31.409508
9855   1  1 35.691684 18.558090 18.557917
9857   1  1 35.691203 18.559103 21.414211
9858   1  1 34.262906 17.132194 22.842247
9859   1  1 35.690687 18.559639 24.270302
9860   1  1 34.262567 17.132434 25.697837
9861   1  1 35.690434 18.559678 27.125937
9862   1  1 34.262690 17.132204 28.553367
9863   1  1 35.690788 18.559280 29.981526
9893   1  1 35.692111 21.411538 15.700553
9894   1  1 34.263628 19.984820 17.129129
9895   1  1 35.694012 21.410610 18.554670
9896   1  1 34.264175 19.985652 19.984739
9897   1  1 35.693859 21.411926 21.412666
9898   1  1 34.263602 19.987013 22.841667
9899   1  1 35.692666 21.413041 24.270735
9900   1  1 34.262717 19.987442 25.698149
9901   1  1 35.691767 21.413390 27.127488
9902   1  1 34.262530 19.987068 28.554174
9903   1  1 35.691377 21.413602 29.983056
9904   1  1 34.263399 19.986243 31.410327
9905   1  1 35.691956 21.413104 32.838662
9933   1  1 35.694191 24.265413 15.698410
9934   1  1 34.263371 22.838386 17.126810
9935   1  1 35.704509 24.256818 18.544812
9936   1  1 34.268895 22.836057 19.978815
9937   1  1 35.703527 24.259099 21.408951
9938   1  1 34.267733 22.838731 22.840069
9939   1  1 35.699495 24.262574 24.273222
9940   1  1 34.265213 22.839765 25.699837
9941   1  1 35.696595 24.264882 27.131911
9942   1  1 34.263679 22.840443 28.556199
9943   1  1 35.692146 24.269291 29.983145
9944   1  1 34.263825 22.841017 31.411245
9945   1  1 35.692942 24.267490 32.840129
9946   1  1 34.264456 22.839439 34.267729
9947   1  1 35.692436 24.267330 35.695172
9972   1  1 34.264502 25.695260 14.272912
9973   1  1 35.694226 27.123238 15.698691
9974   1  1 34.268870 25.690067 17.123328
9975   1  1 35.702615 27.121045 18.545861
9976   1  1 34.294146 25.668796 19.956200
9977   1  1 35.700081 27.119420 21.405113
9978   1  1 34.287499 25.677588 22.838145
9979   1  1 35.691853 27.126178 24.274072
9980   1  1 34.277924 25.683852 25.710149
9981   1  1 35.688038 27.132305 27.127270
9982   1  1 34.265277 25.697136 28.554994
9983   1  1 35.687569 27.130102 29.980338
9984   1  1 34.266884 25.694185 31.414033
9985   1  1 35.692330 27.123243 32.841559
9986   1  1 34.264388 25.694802 34.268374
9987   1  1 35.692236 27.123302 35.695538
9988   1  1 34.264060 25.695566 37.122279
9989   1  1 35.691982 27.124122 38.549308
10011  1  1 35.692252 29.980564 12.846459
10012  1  1 34.264445 28.552083 14.273646
10013  1  1 35.694538 29.980917 15.698866
10014  1  1 34.267915 28.551173 17.124959
10015  1  1 35.703085 29.981933 18.545580
10016  1  1 34.283455 28.553166 19.965216
10017  1  1 35.710568 29.972770 21.395101
10018  1  1 34.274443 28.553565 22.835825
10019  1  1 35.700092 29.975628 24.265584
10020  1  1 34.252470 28.572780 25.700130
10021  1  1 35.696179 29.978676 27.131967
10022  1  1 34.248623 28.570333 28.544558
10023  1  1 35.707631 29.966661 30.001101
10024  1  1 34.264238 28.551725 31.416195
10025  1  1 35.696530 29.977363 32.845445
10026  1  1 34.264371 28.551364 34.268999
10027  1  1 35.693328 29.979565 35.695974
10028  1  1 34.264040 28.551924 37.122014
10029  1  1 35.692256 29.980163 38.549173
10030  1  1 34.263903 28.552390 39.976108
10051  1  1 35.692508 32.836870 12.846417
10052  1  1 34.264504 31.408870 14.273992
10053  1  1 35.694744 32.838607 15.698760
10054  1  1 34.267710 31.410659 17.125303
10055  1  1 35.702493 32.843127 18.546342
10056  1  1 34.283031 31.418628 19.966089
10057  1  1 35.712330 32.837886 21.393862
10058  1  1 34.302312 31.382754 22.814280
10059  1  1 35.697757 32.856123 24.249513
10060  1  1 34.340290 31.426898 25.701093
10061  1  1 35.698549 32.857742 27.159449
10062  1  1 34.305840 31.377624 28.596942
10063  1  1 35.718325 32.837496 30.014003
10064  1  1 34.273526 31.407250 31.422393
10065  1  1 35.700264 32.838477 32.848234
10066  1  1 34.266745 31.408944 34.269596
10067  1  1 35.694783 32.837186 35.696686