LAMMPS data file via write_data, version 30 Jul 2021, timestep = 71

1999 atoms
1 atom types

0 14.2765 xlo xhi
0 28.553 ylo yhi
0 87.106 zlo zhi
0 0 0 xy xz yz

Masses

1 55.85

Atoms # molecular

1 -2 1 14.276499999999995 28.552978824134822 14.985007081665719 -1 -1 0
2 -2 1 14.276499999999995 28.552976203045883 17.85518560144557 -1 -1 0
3 -2 1 14.276499999999995 28.552969476097605 20.712499246005624 -1 -1 0
4 -2 1 14.276499999999995 28.552963685920737 23.567965715841062 -1 -1 0
5 -2 1 14.276499999999993 28.552973779323306 26.42339243174287 -1 -1 0
6 -2 1 14.276499999999995 3.4315548228389314e-05 29.278815214468345 -1 0 0
7 -2 1 14.276499999999993 0.0001878186559497436 32.134138130469786 -1 0 0
8 0 1 14.276499999999993 0.00033619021673831175 34.989168283579964 -1 0 0
9 0 1 14.276499999999997 0.00035530373322356233 37.843888328690085 -1 0 0
10 0 1 14.276499999999993 0.00030743387738448643 40.69849933241846 -1 0 0
11 0 1 14.276499999999995 0.00027419420497357887 43.55315677285237 -1 0 0
12 0 1 14.276499999999995 0.0002745062942372129 46.40784741676686 -1 0 0
13 0 1 14.276499999999995 0.00030850567173333924 49.26250421762596 -1 0 0
14 0 1 14.276499999999995 0.0003574948492125356 52.1171132802212 -1 0 0
15 -2 1 0 0.00033990873918213183 54.97182884585046 0 0 0
16 -2 1 14.276499999999993 0.0001932000705261115 57.826850446309436 -1 0 0
17 -2 1 14.276499999999995 4.0657269653854435e-05 60.68215905007038 -1 0 0
18 -2 1 14.276499999999997 28.55297862278272 63.53754900173947 -1 -1 0
19 -2 1 14.276499999999995 28.55296170615889 66.39263635869739 -1 -1 0
20 -2 1 14.276499999999995 28.552951285794954 69.2345300237482 -1 -1 0
21 -2 1 14.276499999999995 2.855244204553679 14.985005810417983 -1 0 0
22 -2 1 14.276499999999995 2.855237893584257 17.855172406606524 -1 0 0
23 -2 1 14.276499999999995 2.8552215760813837 20.712468638096837 -1 0 0
24 -2 1 14.276499999999995 2.855209085936553 23.567902609709446 -1 0 0
25 -2 1 14.276499999999995 2.8552351757429917 26.423277367629918 -1 0 0
26 -2 1 14.276499999999997 2.8553683056267256 29.27865463377705 -1 0 0
27 -2 1 14.276499999999995 2.85570571164176 32.134064948974974 -1 0 0
28 0 1 14.276499999999993 2.8562829998719876 34.98949559596644 -1 0 0
29 0 1 0 2.8566044905213026 37.844449008661186 0 0 0
30 0 1 14.276499999999993 2.856473960520806 40.698795343762356 -1 0 0
31 0 1 3.170019802212209e-15 2.856388437139899 43.55324609062931 0 0 0
32 0 1 14.276499999999993 2.856389255985224 46.40775659924343 -1 0 0
33 0 1 14.276499999999993 2.856476770171823 49.262206945655734 -1 0 0
34 0 1 14.276499999999995 2.8566102230436896 52.11655207596395 -1 0 0
35 -2 1 14.276499999999993 2.856292736358998 54.9715027113936 -1 0 0
36 -2 1 14.276499999999993 2.8557198139742055 57.82692805589972 -1 0 0
37 -2 1 14.276499999999995 2.8553848938409714 60.682329315673044 -1 0 0
38 -2 1 0 2.8552478177373737 63.537680876857 0 0 0
39 -2 1 14.276499999999993 2.855203908810875 66.39272366581291 -1 0 0
40 -2 1 14.276499999999995 2.855174167290942 69.23458779157886 -1 0 0
41 -2 1 14.276499999999995 5.710530330477495 14.98500287497408 -1 0 0
42 -2 1 14.276499999999995 5.71052365904323 17.855149745875842 -1 0 0
43 -2 1 14.276499999999995 5.710506040450312 20.712418520062023 -1 0 0
44 -2 1 14.276499999999997 5.710495229172045 23.567805523451074 -1 0 0
45 -2 1 14.276499999999995 5.710525917769626 26.423112846855318 -1 0 0
46 -2 1 14.276499999999995 5.710651938052886 29.278424917355142 -1 0 0
47 -2 1 14.276499999999995 5.710966907096573 32.13384272990895 -1 0 0
48 0 1 14.276499999999995 5.71171908501983 34.9896229839643 -1 0 0
49 0 1 14.276499999999997 5.7135973218007585 37.84619572040278 -1 0 0
50 0 1 14.276499999999993 5.713266889020948 40.69948622745218 -1 0 0
51 0 1 14.276499999999997 5.713187019696445 43.55346463700337 -1 0 0
52 0 1 14.276499999999995 5.713188034595867 46.40753561953411 -1 0 0
53 0 1 14.276499999999993 5.713270370030851 49.26151402016231 -1 0 0
54 0 1 14.276499999999995 5.713604415757296 52.114804516384595 -1 0 0
55 -2 1 14.276499999999995 5.711731134118097 54.971377234829866 -1 0 0
56 -2 1 14.276499999999993 5.7109843422449424 57.827157447896944 -1 0 0
57 -2 1 14.276499999999997 5.71067241288995 60.682574714287774 -1 0 0
58 -2 1 14.276499999999997 5.710541474363505 63.53787254390655 -1 0 0
59 -2 1 14.276499999999993 5.710488835637991 66.39285973640696 -1 0 0
60 -2 1 0 5.710447864152538 69.23468188262078 0 0 0
61 -2 1 14.276499999999995 8.565843075115938 14.984998831213915 -1 0 0
62 -2 1 14.276499999999995 8.565838624598657 17.855125513247348 -1 0 0
63 -2 1 14.276499999999995 8.565826374241889 20.7123679567646 -1 0 0
64 -2 1 14.276499999999997 8.565820657754113 23.567714732036812 -1 0 0
65 -2 1 14.276499999999995 8.565843425403614 26.422970905896946 -1 0 0
66 -2 1 14.276499999999995 8.56592292767762 29.278229647379895 -1 0 0
67 -2 1 14.276499999999995 8.566108443923532 32.13360309248852 -1 0 0
68 0 1 14.276499999999995 8.566515976847606 34.9893578316971 -1 0 0
69 0 1 14.276499999999995 8.567282364533751 37.845782477937234 -1 0 0
70 0 1 14.276499999999993 8.568007704253677 40.70016634097542 -1 0 0
71 0 1 14.276499999999997 8.567497640412556 43.553568904417524 -1 0 0
72 0 1 14.276499999999997 8.567498462243162 46.40742890760859 -1 0 0
73 0 1 14.276499999999993 8.56801052097848 49.260831859573074 -1 0 0
74 0 1 14.276499999999993 8.567288102714729 52.1152169154207 -1 0 0
75 -2 1 14.276499999999995 8.566525729185724 54.971644303862846 -1 0 0
76 -2 1 14.276499999999993 8.566122551426638 57.82740426893571 -1 0 0
77 -2 1 14.276499999999997 8.565939465965661 60.68278566995836 -1 0 0
78 -2 1 14.276499999999997 8.565855957426233 63.53804155356784 -1 0 0
79 -2 1 14.276499999999993 8.565815469390563 66.392989292553 -1 0 0
80 -2 1 14.276499999999995 8.565779650892448 69.23477630182822 -1 0 0
81 -2 1 14.276499999999995 11.421178125796647 14.984995764110483 -1 0 0
82 -2 1 14.276499999999995 11.421176655644016 17.85510977403598 -1 0 0
83 -2 1 14.276499999999997 11.421172435950787 20.71233663546447 -1 0 0
84 -2 1 14.276499999999993 11.421170831403707 23.567661708188556 -1 0 0
85 -2 1 14.276499999999997 11.421178991889203 26.422892236843236 -1 0 0
86 -2 1 14.276499999999995 11.421205137797052 29.278123158889812 -1 0 0
87 -2 1 14.276499999999993 11.42126363158882 32.13346731110609 -1 0 0
88 0 1 14.276499999999995 11.421389022219572 34.98920332761959 -1 0 0
89 0 1 14.276499999999995 11.421632591780476 37.84566029923087 -1 0 0
90 0 1 14.276499999999993 11.421751929720147 40.69963564546831 -1 0 0
91 0 1 14.276499999999995 11.421078245665777 43.55288853527516 -1 0 0
92 0 1 14.276499999999995 11.42107856132244 46.40810776118212 -1 0 0
93 0 1 14.276499999999997 11.421753008465691 49.2613612899133 -1 0 0
94 0 1 14.276499999999993 11.421634786604903 52.115338574393 -1 0 0
95 -2 1 14.276499999999993 11.42139274940273 54.9717999954611 -1 0 0
96 -2 1 14.276499999999993 11.421269019760713 57.82754449609697 -1 0 0
97 -2 1 14.276499999999995 11.421211448600781 60.68290184852692 -1 0 0
98 -2 1 14.276499999999995 11.421183764906681 63.53813691320325 -1 0 0
99 -2 1 14.276499999999993 11.421168843380087 66.3930661525668 -1 0 0
100 -2 1 3.170019802212209e-15 11.421154670121236 69.23483459081467 0 0 0
101 -2 1 14.276499999999993 14.276521874203342 14.98499576411048 -1 0 0
102 -2 1 14.276499999999997 14.276523344355972 17.855109774035984 -1 0 0
103 -2 1 14.276499999999997 14.2765275640492 20.71233663546447 -1 0 0
104 -2 1 14.276499999999993 14.276529168596282 23.567661708188556 -1 0 0
105 -2 1 14.276499999999995 14.276521008110787 26.42289223684323 -1 0 0
106 -2 1 14.276499999999995 14.276494862202938 29.27812315888982 -1 0 0
107 -2 1 14.276499999999995 14.276436368411169 32.13346731110608 -1 0 0
108 0 1 14.276499999999997 14.276310977780417 34.9892033276196 -1 0 0
109 0 1 14.276499999999997 14.276067408219516 37.84566029923088 -1 0 0
110 0 1 14.276499999999995 14.275948070279844 40.69963564546831 -1 0 0
111 0 1 14.276499999999995 14.276621754334213 43.55288853527516 -1 0 0
112 0 1 14.276499999999995 14.276621438677555 46.40810776118212 -1 0 0
113 0 1 14.276499999999995 14.275946991534296 49.2613612899133 -1 0 0
114 0 1 14.276499999999995 14.276065213395086 52.11533857439299 -1 0 0
115 -2 1 0 14.27630725059726 54.97179999546111 0 0 0
116 -2 1 14.276499999999995 14.276430980239281 57.82754449609697 -1 0 0
117 -2 1 14.276499999999995 14.276488551399208 60.68290184852692 -1 0 0
118 -2 1 14.276499999999995 14.276516235093304 63.53813691320325 -1 0 0
119 -2 1 14.276499999999993 14.276531156619901 66.3930661525668 -1 0 0
120 -2 1 14.276499999999997 14.276545329878752 69.23483459081467 -1 0 0
121 -2 1 14.276499999999995 17.131856924884044 14.984998831213916 -1 0 0
122 -2 1 14.276499999999995 17.131861375401325 17.855125513247348 -1 0 0
123 -2 1 14.276499999999995 17.131873625758107 20.712367956764602 -1 0 0
124 -2 1 14.276499999999995 17.13187934224588 23.56771473203681 -1 0 0
125 -2 1 14.276499999999995 17.131856574596377 26.422970905896953 -1 0 0
126 -2 1 14.276499999999995 17.13177707232237 29.278229647379888 -1 0 0
127 -2 1 14.276499999999993 17.131591556076465 32.13360309248852 -1 0 0
128 0 1 14.276499999999993 17.131184023152386 34.9893578316971 -1 0 0
129 0 1 14.276499999999995 17.130417635466237 37.845782477937234 -1 0 0
130 0 1 14.276499999999995 17.12969229574631 40.70016634097543 -1 0 0
131 0 1 14.276499999999995 17.13020235958743 43.55356890441752 -1 0 0
132 0 1 14.276499999999995 17.130201537756818 46.4074289076086 -1 0 0
133 0 1 0 17.129689479021522 49.260831859573074 0 0 0
134 0 1 14.276499999999993 17.13041189728526 52.11521691542072 -1 0 0
135 -2 1 14.276499999999995 17.13117427081428 54.97164430386284 -1 0 0
136 -2 1 14.276499999999993 17.131577448573346 57.82740426893572 -1 0 0
137 -2 1 14.276499999999995 17.131760534034328 60.68278566995836 -1 0 0
138 -2 1 14.276499999999995 17.131844042573757 63.53804155356784 -1 0 0
139 -2 1 14.276499999999993 17.131884530609426 66.392989292553 -1 0 0
140 -2 1 14.276499999999995 17.131920349107546 69.23477630182822 -1 0 0
141 -2 1 14.276499999999995 19.987169669522494 14.98500287497408 -1 0 0
142 -2 1 14.276499999999995 19.987176340956754 17.855149745875842 -1 0 0
143 -2 1 14.276499999999995 19.98719395954967 20.71241852006202 -1 0 0
144 -2 1 14.276499999999995 19.98720477082794 23.567805523451074 -1 0 0
145 -2 1 14.276499999999995 19.987174082230368 26.423112846855318 -1 0 0
146 -2 1 14.276499999999995 19.9870480619471 29.278424917355142 -1 0 0
147 -2 1 14.276499999999997 19.986733092903414 32.13384272990895 -1 0 0
148 0 1 14.276499999999997 19.98598091498016 34.9896229839643 -1 0 0
149 0 1 14.276499999999997 19.984102678199232 37.84619572040279 -1 0 0
150 0 1 14.276499999999995 19.984433110979044 40.69948622745218 -1 0 0
151 0 1 14.276499999999997 19.984512980303546 43.55346463700339 -1 0 0
152 0 1 14.276499999999993 19.984511965404128 46.40753561953411 -1 0 0
153 0 1 0 19.984429629969128 49.26151402016231 0 0 0
154 0 1 14.276499999999995 19.984095584242695 52.11480451638458 -1 0 0
155 -2 1 0 19.985968865881887 54.971377234829866 0 0 0
156 -2 1 14.276499999999993 19.98671565775504 57.827157447896944 -1 0 0
157 -2 1 0 19.987027587110035 60.682574714287774 0 0 0
158 -2 1 14.276499999999997 19.987158525636485 63.53787254390655 -1 0 0
159 -2 1 14.276499999999993 19.987211164362 66.39285973640695 -1 0 0
160 -2 1 0 19.987252135847452 69.23468188262078 0 0 0
161 -2 1 14.276499999999995 22.842455795446313 14.985005810417984 -1 0 0
162 -2 1 14.276499999999995 22.842462106415734 17.85517240660652 -1 0 0
163 -2 1 14.276499999999995 22.842478423918603 20.71246863809684 -1 0 0
164 -2 1 14.276499999999995 22.842490914063443 23.56790260970944 -1 0 0
165 -2 1 14.276499999999993 22.842464824257 26.42327736762992 -1 0 0
166 -2 1 14.276499999999993 22.842331694373268 29.278654633777045 -1 0 0
167 -2 1 14.276499999999995 22.84199428835823 32.13406494897497 -1 0 0
168 0 1 14.276499999999995 22.841417000127997 34.989495595966446 -1 0 0
169 0 1 14.276499999999995 22.841095509478684 37.84444900866117 -1 0 0
170 0 1 14.276499999999995 22.84122603947919 40.69879534376237 -1 0 0
171 0 1 14.276499999999995 22.841311562860096 43.5532460906293 -1 0 0
172 0 1 14.276499999999993 22.841310744014766 46.40775659924345 -1 0 0
173 0 1 14.276499999999995 22.84122322982817 49.26220694565572 -1 0 0
174 0 1 14.276499999999997 22.841089776956295 52.11655207596395 -1 0 0
175 -2 1 14.276499999999997 22.841407263640992 54.9715027113936 -1 0 0
176 -2 1 14.276499999999995 22.84198018602578 57.82692805589972 -1 0 0
177 -2 1 14.276499999999997 22.842315106159017 60.682329315673044 -1 0 0
178 -2 1 14.276499999999997 22.842452182262612 63.53768087685702 -1 0 0
179 -2 1 14.276499999999993 22.84249609118911 66.3927236658129 -1 0 0
180 -2 1 14.276499999999997 22.842525832709043 69.23458779157886 -1 0 0
181 -2 1 14.276499999999997 25.69772117586517 14.985007081665717 -1 0 0
182 -2 1 14.276499999999995 25.697723796954115 17.85518560144557 -1 0 0
183 -2 1 14.276499999999997 25.697730523902376 20.71249924600562 -1 0 0
184 -2 1 14.276499999999995 25.697736314079243 23.567965715841062 -1 0 0
185 -2 1 14.276499999999995 25.69772622067668 26.42339243174286 -1 0 0
186 -2 1 14.276499999999997 25.69766568445176 29.278815214468345 -1 0 0
187 -2 1 14.276499999999995 25.69751218134404 32.13413813046978 -1 0 0
188 0 1 14.276499999999997 25.697363809783248 34.989168283579964 -1 0 0
189 0 1 14.276499999999997 25.69734469626677 37.843888328690085 -1 0 0
190 0 1 14.276499999999995 25.69739256612261 40.69849933241844 -1 0 0
191 0 1 14.276499999999993 25.697425805795017 43.55315677285237 -1 0 0
192 0 1 14.276499999999995 25.69742549370575 46.40784741676685 -1 0 0
193 0 1 14.276499999999995 25.697391494328254 49.26250421762596 -1 0 0
194 0 1 14.276499999999993 25.697342505150775 52.11711328022118 -1 0 0
195 -2 1 14.276499999999995 25.697360091260812 54.97182884585047 -1 0 0
196 -2 1 14.276499999999993 25.697506799929467 57.82685044630942 -1 0 0
197 -2 1 14.276499999999995 25.697659342730333 60.68215905007038 -1 0 0
198 -2 1 14.276499999999997 25.697721377217263 63.53754900173947 -1 0 0
199 -2 1 14.276499999999995 25.69773829384111 66.39263635869739 -1 0 0
200 -2 1 14.276499999999993 25.69774871420504 69.23453002374819 -1 0 0
201 -2 1 2.8552994424151876 28.552978809028478 14.985006570103922 0 -1 0
202 -2 1 2.8553002740351987 28.55297618935248 17.8551848668723 0 -1 0
203 -2 1 2.8553020559766393 28.552969467717617 20.712498973769527 0 -1 0
204 -2 1 2.8553050287467303 28.55296371639972 23.56796824793301 0 -1 0
205 -2 1 2.8553042575343297 28.552973775430235 26.423401634336685 0 -1 0
206 -2 1 2.8552863421310684 3.341020113276422e-05 29.278830124766948 0 0 0
207 -2 1 2.855241736070034 0.0001832962422436888 32.1341476189412 0 0 0
208 0 1 2.855188247983224 0.00032537353178963 34.98915871457499 0 0 0
209 0 1 2.8551741928541587 0.000329378548325014 37.84384624740514 0 0 0
210 0 1 2.8551525084017695 0.00026271404270031994 40.69846914295099 0 0 0
211 0 1 2.8551266986866453 0.0002217262647659476 43.55314776904193 0 0 0
212 0 1 2.8551266992383595 0.0002220388320121184 46.40785641814072 0 0 0
213 0 1 2.855152509761609 0.0002637853833063716 49.26253440587729 0 0 0
214 0 1 2.8551741969064826 0.00033156726910383454 52.117155361014596 0 0 0
215 -2 1 2.855188250375753 0.0003290902436637762 54.97183842029451 0 0 0
216 -2 1 2.855241729779676 0.0001886774043598371 57.82684096338576 0 0 0
217 -2 1 2.8552863176581766 3.9751897030232584e-05 60.682144134405824 0 0 0
218 -2 1 2.855304212420901 28.552978618007852 63.537539763181016 0 -1 0
219 -2 1 2.855305036139319 28.552961731543775 66.3926337350581 0 -1 0
220 -2 1 2.8553023509348083 28.552951271891796 69.23453027759084 0 -1 0
221 -2 1 2.855299442961698 2.8552441658854137 14.985005283331883 0 0 0
222 -2 1 2.8553003106185995 2.8552378571980843 17.855171652087076 0 0 0
223 -2 1 2.855302177595233 2.855221546945649 20.712468383611053 0 0 0
224 -2 1 2.8553052564362424 2.855209133822333 23.56790535843557 0 0 0
225 -2 1 2.8553038306891882 2.855235026214439 26.4232872509092 0 0 0
226 -2 1 2.8552804749051086 2.8553652648917978 29.27867001754303 0 0 0
227 -2 1 2.8552118816824916 2.85568992595788 32.13406942357581 0 0 0
228 0 1 2.855094460230105 2.8562327244947356 34.98945509388714 0 0 0
229 0 1 2.855116198417685 2.8563971126309102 37.84423678804617 0 0 0
230 0 1 2.8550868969028933 2.856180812196458 40.69869000314693 0 0 0
231 0 1 2.8550197354923825 2.856043080393612 43.553214841253656 0 0 0
232 0 1 2.8550197358862555 2.856043899789916 46.40778784638279 0 0 0
233 0 1 2.8550868980540955 2.856183622884338 49.26231228548512 0 0 0
234 0 1 2.855116201933236 2.8564028459096114 52.11676429645378 0 0 0
235 -2 1 2.8550944627144874 2.8562424612883355 54.9715432155281 0 0 0
236 -2 1 2.855211874924676 2.8557040277241064 57.826923584538015 0 0 0
237 -2 1 2.855280449269234 2.8553818521089487 60.682313927355786 0 0 0
238 -2 1 2.855303785343485 2.8552476654269925 63.53767095786969 0 0 0
239 -2 1 2.8553052623511777 2.8552039453930513 66.39272081760299 0 0 0
240 -2 1 2.855302496622594 2.8551741257774688 69.23458801191147 0 0 0
241 -2 1 2.8552994414002093 5.710530282987219 14.985002319439953 0 0 0
242 -2 1 2.8553003721183723 5.710523614023269 17.855148962379015 0 0 0
243 -2 1 2.8553023997428015 5.710506002228338 20.712418302067395 0 0 0
244 -2 1 2.8553057777412323 5.7104952537311195 23.567808671419186 0 0 0
245 -2 1 2.8553041041682454 5.7105254279511595 26.423124122076764 0 0 0
246 -2 1 2.855277316285655 5.710645807014277 29.278442084536454 0 0 0
247 -2 1 2.8552015607649 5.710928371893229 32.13383387437666 0 0 0
248 0 1 2.855116982425036 5.711504782930499 34.98942697307421 0 0 0
249 0 1 2.855339689517051 5.7125166467172175 37.84511797515022 0 0 0
250 0 1 2.855765521944509 5.712446205134322 40.69948033720139 0 0 0
251 0 1 2.8555539321289003 5.712057623326214 43.5534074959611 0 0 0
252 0 1 2.855553932246049 5.712058637098438 46.40759275780999 0 0 0
253 0 1 2.8557655209498933 5.712449680746718 49.26151991129705 0 0 0
254 0 1 2.855339691350671 5.712523737750115 52.11588225968871 0 0 0
255 -2 1 2.8551169860506063 5.711516828634486 54.9715732470838 0 0 0
256 -2 1 2.855201556241047 5.710945805292929 57.82716630711654 0 0 0
257 -2 1 2.8552772904459642 5.710666280209156 60.68255754063564 0 0 0
258 -2 1 2.855304056264259 5.710540981670322 63.537861230495025 0 0 0
259 -2 1 2.8553057777710276 5.71048884595656 66.39285647564826 0 0 0
260 -2 1 2.855302756631547 5.710447808850407 69.23468204108357 0 0 0
261 -2 1 2.855299440259275 8.565843038975567 14.984998245358835 0 0 0
262 -2 1 2.855300432833329 8.565838589677874 17.85512470054486 0 0 0
263 -2 1 2.8553026243403545 8.565826349907486 20.712367775478004 0 0 0
264 -2 1 2.8553063090985438 8.565820717316347 23.56771825581103 0 0 0
265 -2 1 2.855304334031509 8.565843234370766 26.422983269749384 0 0 0
266 -2 1 2.855273096771185 8.56591883501595 29.278246507061304 0 0 0
267 -2 1 2.855180983152354 8.566082493792596 32.13357511303405 0 0 0
268 0 1 2.855084421713513 8.566410860276855 34.98907688784074 0 0 0
269 0 1 2.8557621749610362 8.567275518257725 37.84496321901137 0 0 0
270 0 1 2.8614654309464904 8.572736895247656 40.70489771539966 0 0 0
271 0 1 2.858737638382194 8.56980193003768 43.55354267560523 0 0 0
272 0 1 2.858737641133317 8.569802755714399 46.407455138778474 0 0 0
273 0 1 2.8614654302537463 8.572739715996644 49.25610048336731 0 0 0
274 0 1 2.855762174024613 8.567281261558795 52.11603616709379 0 0 0
275 -2 1 2.855084429558179 8.5664206114017 54.9719252466568 0 0 0
276 -2 1 2.8551809821133727 8.566096599206249 57.82743225603097 0 0 0
277 -2 1 2.8552730712407506 8.565935371471575 60.682768804619045 0 0 0
278 -2 1 2.855304281146052 8.565855762771264 63.538029149029754 0 0 0
279 -2 1 2.8553063025865493 8.565815518264724 66.39298564168722 0 0 0
280 -2 1 2.855303018890241 8.565779614546056 69.23477639495825 0 0 0
281 -2 1 2.8552994402845346 11.421178112133898 14.984995161000471 0 0 0
282 -2 1 2.8553004670067046 11.421176642948659 17.855108941605913 0 0 0
283 -2 1 2.8553027411863168 11.4211724312842 20.71233647179234 0 0 0
284 -2 1 2.855306524000158 11.421170873012949 23.56766545099098 0 0 0
285 -2 1 2.855303940412507 11.421179011150027 26.422905292776726 0 0 0
286 -2 1 2.855268112900744 11.421204033528236 29.278140400023496 0 0 0
287 -2 1 2.8551583495545683 11.421256014761463 32.133432036548726 0 0 0
288 0 1 2.8550157893879926 11.421357935176117 34.98887072351695 0 0 0
289 0 1 2.855549446638146 11.42157556219212 37.84453299313629 0 0 0
290 0 1 2.8587420200689797 11.42172787247892 40.70194630734041 0 0 0
291 0 1 2.8554748419023586 11.41970498000409 43.55151606360212 0 0 0
292 0 1 2.85547483921197 11.41970529791078 46.40948023182906 0 0 0
293 0 1 2.8587420093924263 11.42172894473535 49.25905063524228 0 0 0
294 0 1 2.8555494475131904 11.421577756203964 52.116465868356 0 0 0
295 -2 1 2.8550158002418398 11.421361660895581 54.972132593641646 0 0 0
296 -2 1 2.8551583496665773 11.421261401961246 57.827579779223775 0 0 0
297 -2 1 2.855268086811184 11.421210344262148 60.68288460449614 0 0 0
298 -2 1 2.855303884146446 11.421183782920249 63.53812381689814 0 0 0
299 -2 1 2.8553065158047506 11.421168879705107 66.39306227250368 0 0 0
300 -2 1 2.8553031571257175 11.421154658612856 69.23483464939568 0 0 0
301 -2 1 2.8552994402845346 14.276521887866089 14.984995161000471 0 0 0
302 -2 1 2.8553004670067055 14.276523357051328 17.855108941605913 0 0 0
303 -2 1 2.8553027411863177 14.276527568715789 20.712336471792337 0 0 0
304 -2 1 2.8553065240001585 14.276529126987045 23.567665450990987 0 0 0
305 -2 1 2.855303940412507 14.27652098884996 26.422905292776722 0 0 0
306 -2 1 2.8552681129007444 14.276495966471755 29.278140400023506 0 0 0
307 -2 1 2.8551583495545683 14.276443985238528 32.133432036548726 0 0 0
308 0 1 2.855015789387991 14.276342064823874 34.98887072351695 0 0 0
309 0 1 2.855549446638144 14.276124437807871 37.84453299313629 0 0 0
310 0 1 2.8587420200689797 14.27597212752107 40.70194630734041 0 0 0
311 0 1 2.855474841902359 14.277995019995897 43.55151606360212 0 0 0
312 0 1 2.8554748392119738 14.277994702089217 46.40948023182906 0 0 0
313 0 1 2.8587420093924267 14.27597105526464 49.25905063524228 0 0 0
314 0 1 2.8555494475131904 14.276122243796033 52.116465868355995 0 0 0
315 -2 1 2.855015800241839 14.27633833910441 54.972132593641646 0 0 0
316 -2 1 2.8551583496665747 14.276438598038744 57.827579779223775 0 0 0
317 -2 1 2.855268086811187 14.27648965573784 60.68288460449614 0 0 0
318 -2 1 2.855303884146448 14.27651621707974 63.53812381689814 0 0 0
319 -2 1 2.8553065158047506 14.276531120294882 66.39306227250368 0 0 0
320 -2 1 2.8553031571257192 14.276545341387138 69.23483464939567 0 0 0
321 -2 1 2.855299440259275 17.131856961024425 14.984998245358835 0 0 0
322 -2 1 2.855300432833329 17.131861410322117 17.855124700544856 0 0 0
323 -2 1 2.855302624340354 17.131873650092505 20.712367775478008 0 0 0
324 -2 1 2.855306309098544 17.131879282683634 23.567718255811027 0 0 0
325 -2 1 2.855304334031507 17.131856765629227 26.422983269749384 0 0 0
326 -2 1 2.855273096771185 17.13178116498403 29.2782465070613 0 0 0
327 -2 1 2.855180983152352 17.131617506207398 32.133575113034055 0 0 0
328 0 1 2.8550844217135136 17.131289139723137 34.98907688784073 0 0 0
329 0 1 2.8557621749610367 17.130424481742267 37.844963219011376 0 0 0
330 0 1 2.8614654309464886 17.124963104752336 40.70489771539966 0 0 0
331 0 1 2.858737638382196 17.127898069962313 43.55354267560523 0 0 0
332 0 1 2.858737641133318 17.127897244285588 46.407455138778474 0 0 0
333 0 1 2.8614654302537432 17.12496028400336 49.25610048336731 0 0 0
334 0 1 2.855762174024615 17.130418738441186 52.11603616709379 0 0 0
335 -2 1 2.855084429558175 17.131279388598294 54.9719252466568 0 0 0
336 -2 1 2.8551809821133722 17.131603400793743 57.82743225603097 0 0 0
337 -2 1 2.8552730712407524 17.13176462852842 60.68276880461905 0 0 0
338 -2 1 2.8553042811460485 17.13184423722872 63.538029149029754 0 0 0
339 -2 1 2.8553063025865537 17.131884481735266 66.39298564168722 0 0 0
340 -2 1 2.855303018890237 17.13192038545393 69.23477639495825 0 0 0
341 -2 1 2.855299441400209 19.987169717012772 14.985002319439953 0 0 0
342 -2 1 2.8553003721183705 19.987176385976717 17.855148962379015 0 0 0
343 -2 1 2.8553023997428015 19.98719399777166 20.71241830206739 0 0 0
344 -2 1 2.8553057777412327 19.987204746268873 23.567808671419193 0 0 0
345 -2 1 2.855304104168244 19.987174572048836 26.42312412207676 0 0 0
346 -2 1 2.855277316285655 19.987054192985713 29.27844208453646 0 0 0
347 -2 1 2.855201560764896 19.986771628106762 32.133833874376656 0 0 0
348 0 1 2.8551169824250375 19.986195217069497 34.9894269730742 0 0 0
349 0 1 2.855339689517053 19.985183353282775 37.845117975150224 0 0 0
350 0 1 2.8557655219445053 19.985253794865667 40.69948033720139 0 0 0
351 0 1 2.855553932128901 19.985642376673766 43.55340749596112 0 0 0
352 0 1 2.855553932246052 19.985641362901553 46.40759275780997 0 0 0
353 0 1 2.8557655209498924 19.98525031925326 49.26151991129706 0 0 0
354 0 1 2.855339691350678 19.98517626224988 52.11588225968871 0 0 0
355 -2 1 2.8551169860506045 19.986183171365496 54.97157324708382 0 0 0
356 -2 1 2.85520155624105 19.986754194707064 57.82716630711654 0 0 0
357 -2 1 2.8552772904459682 19.987033719790823 60.68255754063564 0 0 0
358 -2 1 2.855304056264255 19.987159018329674 63.537861230495025 0 0 0
359 -2 1 2.855305777771034 19.987211154043433 66.39285647564826 0 0 0
360 -2 1 2.8553027566315445 19.987252191149583 69.23468204108357 0 0 0
361 -2 1 2.8552994429616976 22.842455834114574 14.985005283331883 0 0 0
362 -2 1 2.855300310618599 22.8424621428019 17.855171652087076 0 0 0
363 -2 1 2.855302177595233 22.842478453054333 20.712468383611057 0 0 0
364 -2 1 2.855305256436243 22.842490866177663 23.56790535843557 0 0 0
365 -2 1 2.8553038306891874 22.842464973785553 26.4232872509092 0 0 0
366 -2 1 2.8552804749051104 22.842334735108185 29.27867001754302 0 0 0
367 -2 1 2.8552118816824885 22.84201007404211 32.1340694235758 0 0 0
368 0 1 2.8550944602301076 22.841467275505252 34.989455093887145 0 0 0
369 0 1 2.8551161984176887 22.84130288736907 37.84423678804617 0 0 0
370 0 1 2.8550868969028906 22.841519187803534 40.69869000314693 0 0 0
371 0 1 2.8550197354923834 22.84165691960638 43.55321484125365 0 0 0
372 0 1 2.855019735886256 22.841656100210077 46.40778784638279 0 0 0
373 0 1 2.8550868980540924 22.841516377115653 49.26231228548512 0 0 0
374 0 1 2.855116201933238 22.84129715409038 52.11676429645379 0 0 0
375 -2 1 2.8550944627144816 22.841457538711662 54.9715432155281 0 0 0
376 -2 1 2.855211874924675 22.84199597227589 57.826923584538015 0 0 0
377 -2 1 2.855280449269234 22.842318147891046 60.682313927355786 0 0 0
378 -2 1 2.8553037853434815 22.842452334572997 63.53767095786969 0 0 0
379 -2 1 2.8553052623511777 22.842496054606936 66.39272081760299 0 0 0
380 -2 1 2.8553024966225933 22.842525874222527 69.23458801191147 0 0 0
381 -2 1 2.85529944241519 25.69772119097152 14.985006570103923 0 0 0
382 -2 1 2.8553002740352005 25.697723810647513 17.8551848668723 0 0 0
383 -2 1 2.85530205597664 25.697730532282364 20.712498973769527 0 0 0
384 -2 1 2.8553050287467325 25.697736283600264 23.56796824793301 0 0 0
385 -2 1 2.8553042575343284 25.697726224569745 26.42340163433669 0 0 0
386 -2 1 2.8552863421310684 25.697666589798864 29.278830124766948 0 0 0
387 -2 1 2.8552417360700315 25.69751670375775 32.13414761894119 0 0 0
388 0 1 2.8551882479832207 25.697374626468203 34.989158714575 0 0 0
389 0 1 2.855174192854161 25.69737062145167 37.84384624740514 0 0 0
390 0 1 2.8551525084017673 25.69743728595728 40.69846914295098 0 0 0
391 0 1 2.8551266986866453 25.697478273735218 43.553147769041935 0 0 0
392 0 1 2.8551266992383617 25.69747796116798 46.4078564181407 0 0 0
393 0 1 2.8551525097616075 25.69743621461668 49.26253440587731 0 0 0
394 0 1 2.8551741969064857 25.69736843273089 52.11715536101458 0 0 0
395 -2 1 2.855188250375757 25.697370909756323 54.97183842029452 0 0 0
396 -2 1 2.8552417297796766 25.697511322595638 57.82684096338576 0 0 0
397 -2 1 2.8552863176581815 25.697660248102963 60.682144134405824 0 0 0
398 -2 1 2.855304212420902 25.69772138199213 63.53753976318101 0 0 0
399 -2 1 2.855305036139322 25.697738268456206 66.3926337350581 0 0 0
400 -2 1 2.8553023509348074 25.697748728108184 69.23453027759084 0 0 0
401 -2 1 5.710599654346233 28.55297878358699 14.985005744803205 0 -1 0
402 -2 1 5.710600170056247 28.5529761658672 17.855183679140975 0 -1 0
403 -2 1 5.710601267985163 28.552969450895198 20.712498535358495 0 -1 0
404 -2 1 5.710603114442626 28.552963749684473 23.56797232457129 0 -1 0
405 -2 1 5.710602745062076 28.552973678778745 26.423416897479807 0 -1 0
406 -2 1 5.710590741074295 3.1354499197954375e-05 29.278857614792514 0 0 0
407 -2 1 5.710555594383024 0.00017192740674915646 32.13416170105836 0 0 0
408 0 1 5.710532317689976 0.00028501138898663863 34.989117449501904 0 0 0
409 0 1 5.71052055959963 0.00027128699816970464 37.843789359906374 0 0 0
410 0 1 5.710507640418933 0.00018474228577115826 40.69842059453819 0 0 0
411 0 1 5.710492734810965 0.00012002087949766574 43.55312934821394 0 0 0
412 0 1 5.710492733563916 0.00012033465327044477 46.4078748363561 0 0 0
413 0 1 5.710507641735447 0.00018581489153390152 49.26258295050439 0 0 0
414 0 1 5.710520560896142 0.0002734752656269939 52.11721224867692 0 0 0
415 -2 1 5.71053231948426 0.00028872661651875526 54.971879690867524 0 0 0
416 -2 1 5.710555591652808 0.00017730992297969084 57.82682688778188 0 0 0
417 -2 1 5.710590725777261 3.769597331317302e-05 60.68211663846414 0 0 0
418 -2 1 5.7106027180368795 28.552978519255472 63.53752444272322 0 -1 0
419 -2 1 5.71060311837975 28.552961756713614 66.39262950893922 0 -1 0
420 -2 1 5.710601451265339 28.552951248399808 69.23453068533605 0 -1 0
421 -2 1 5.710599655545501 2.855244101733703 14.985004429685597 0 0 0
422 -2 1 5.7106001930914205 2.8552377971413625 17.855170431205103 0 0 0
423 -2 1 5.710601342686304 2.8552215027795502 20.712467967882976 0 0 0