Generated by pymatgen.io.lammps.data.LammpsData

226  atoms

  2  atom types

0.000000 28.553120  xlo xhi
0.000000 28.553120  ylo yhi
0.000000 28.553120  zlo zhi
0.000000 0.000000 0.000000  xy xz yz

Masses

1  55.847000
2  30.973762

Atoms

1     2  1 28.498090 28.466447 28.466447
2     2  1  0.002760 28.552158  2.852123
3     1  1  0.000640 28.552581  5.710637
8     1  1  0.001019  0.001239 19.986458
9     2  1  0.010777  0.004096 22.843515
10    2  1 28.544535  0.064999 25.706399
11    2  1  0.002760  2.852123 28.552158
12    1  1  0.000472  2.848396  2.848396
19    2  1 28.552049  2.855570 22.842825
20    2  1  0.005037  2.863418 25.692777
21    1  1  0.000640  5.710637 28.552581
30    1  1  0.000878  5.711563 25.696937
71    1  1  0.001019 19.986458  0.001239
78    1  1 28.552323 19.991324 19.991324
79    1  1 28.551611 19.990244 22.845348
80    1  1 28.552742 19.984585 25.698192
81    2  1  0.010777 22.843515  0.004096
82    2  1 28.552049 22.842825  2.855570
88    1  1 28.551611 22.845348 19.990244
89    2  1 28.544510 22.858966 22.858966
90    2  1  0.001788 22.797895 25.696027
91    2  1 28.544535 25.706399  0.064999
92    2  1  0.005037 25.692777  2.863418
93    1  1  0.000878 25.696937  5.711563
98    1  1 28.552742 25.698192 19.984585
99    2  1  0.001788 25.696027 22.797895
100   2  1 27.839353 26.411582 26.411582
101   2  1  2.859223  0.000672  0.000672
102   2  1  2.855997  0.002852  2.854280
108   1  1  2.853351 28.551869 19.989632
109   2  1  2.830129 28.531530 22.867686
110   2  1  2.854300  0.004096 25.687038
111   2  1  2.855997  2.854280  0.002852
112   1  1  2.846841  2.845754  2.845754
119   2  1  2.854424  2.855368 22.843391
120   2  1  2.854990  2.855570 25.698886
171   1  1  2.853351 19.989632 28.551869
178   1  1  2.852581 19.991716 19.991716
179   1  1  2.853369 19.990236 22.844445
180   1  1  2.852467 19.990244 25.699323
181   2  1  2.830129 22.867686 28.531530
182   2  1  2.854424 22.843391  2.855368
188   1  1  2.853369 22.844445 19.990236
189   1  1  2.836275 22.861540 22.861540
190   2  1  2.838849 22.858966 25.706425
191   2  1  2.854300 25.687038  0.004096
192   2  1  2.854990 25.698886  2.855570
198   1  1  2.852467 25.699323 19.990244
199   2  1  2.838849 25.706425 22.858966
200   2  1  2.899920 25.696027 25.696027
201   2  1  5.713720  0.001979  0.001979
209   1  1  5.708183 28.551869 22.844464
210   1  1  5.711356  0.001239 25.696795
279   1  1  5.706098 19.991716 22.845234
280   1  1  5.706490 19.991324 25.698612
281   1  1  5.708183 22.844464 28.551869
288   1  1  5.706098 22.845234 19.991716
289   1  1  5.707579 22.844445 22.844445
290   1  1  5.707571 22.845348 25.699323
291   1  1  5.711356 25.696795  0.001239
298   1  1  5.706490 25.698612 19.991324
299   1  1  5.707571 25.699323 22.845348
300   1  1  5.713230 25.698192 25.698192
701   1  1 19.987899 28.552578 28.552578
710   1  1 19.987178 28.552581 25.697175
791   1  1 19.987178 25.697175 28.552581
800   1  1 19.986252 25.696937 25.696937
801   1  1 22.844366  0.001441  0.001441
802   1  1 22.850747 28.548626  2.847068
809   2  1 22.843535  0.002852 22.841818
810   2  1 22.845692 28.552158 25.695054
811   1  1 22.850747  2.847068 28.548626
812   1  1 22.851439  2.846376  2.846376
819   1  1 22.852061  2.845754 22.850974
820   1  1 22.849419  2.848396 25.697342
881   2  1 22.843535 22.841818  0.002852
882   1  1 22.852061 22.850974  2.845754
889   2  1 22.842447 22.843391 22.843391
890   2  1 22.842245 22.842825 25.698886
891   2  1 22.845692 25.695054 28.552158
892   1  1 22.849419 25.697342  2.848396
899   2  1 22.842245 25.698886 22.842825
900   2  1 22.834397 25.692777 25.692777
901   2  1 25.743042 28.507893 28.507893
902   1  1 25.696373  0.001441  2.853449
903   1  1 25.698356 28.552578  5.709916
908   2  1 25.695836  0.001979 19.984095
909   2  1 25.697142  0.000672 22.838592
910   2  1 25.784488 28.466447 25.752845
911   1  1 25.696373  2.853449  0.001441
912   1  1 25.702309  2.847068  2.847068
919   2  1 25.694963  2.854280 22.841818
920   2  1 25.698777  2.852123 25.695054
921   1  1 25.698356  5.709916 28.552578
930   1  1 25.698354  5.710637 25.697175
971   2  1 25.695836 19.984095  0.001979
979   1  1 25.699065 19.989632 22.844464
980   1  1 25.696576 19.986458 25.696795
981   2  1 25.697142 22.838592  0.000672
982   2  1 25.694963 22.841818  2.854280
988   1  1 25.699065 22.844464 19.989632
989   2  1 25.719404 22.867686 22.867686
990   2  1 25.693719 22.843515 25.687038
991   2  1 25.784488 25.752845 28.466447
992   2  1 25.698777 25.695054  2.852123
993   1  1 25.698354 25.697175  5.710637
998   1  1 25.696576 25.696795 19.986458
999   2  1 25.693719 25.687038 22.843515
1000  2  1 25.632815 25.706399 25.706399
1001  2  1  1.406181  1.402358  1.402358
1002  1  1  1.426520  1.425580  4.280412
1008  2  1  1.430623  1.428226 21.415764
1009  2  1  1.428443  1.431452 24.269371
1010  2  1  1.431867  1.426529 27.136126
1011  1  1  1.426520  4.280412  1.425580
1019  1  1  1.429750  4.285949 24.268065
1020  1  1  1.429010  4.283586 27.126368
1068  1  1  1.426288 18.562079 21.417078
1069  1  1  1.427229 18.560128 24.270585
1070  1  1  1.427232 18.559407 27.125989
1071  2  1  1.430623 21.415764  1.428226
1077  1  1  1.426288 21.417078 18.562079
1078  1  1  1.423277 21.422976 21.422976
1079  2  1  1.429212 21.416595 24.268602
1080  2  1  1.426809 21.417921 27.128109
1081  2  1  1.428443 24.269371  1.431452
1082  1  1  1.429750 24.268065  4.285949
1087  1  1  1.427229 24.270585 18.560128
1088  2  1  1.429212 24.268602 21.416595
1089  2  1  1.382544 24.315271 24.315271
1090  2  1  1.341098 24.356717 27.070319
1091  2  1  1.431867 27.136126  1.426529
1092  1  1  1.429010 27.126368  4.283586
1097  1  1  1.427232 27.125989 18.559407
1098  2  1  1.426809 27.128109 21.417921
1099  2  1  1.341098 27.070319 24.356717
1100  2  1  1.492770 27.116764 27.116764
1101  1  1  4.283139  1.426653  1.426653
1108  1  1  4.273525  1.419070 21.424290
1109  2  1  4.282051  1.428226 24.267192
1110  2  1  4.283341  1.427219 27.124278
1169  1  1  4.280737 18.562079 24.271526
1170  1  1  4.281220 18.561461 27.125403
1171  1  1  4.273525 21.424290  1.419070
1178  1  1  4.274147 21.423668 21.423668
1179  1  1  4.274839 21.422976 24.274538
1180  1  1  4.276167 21.421648 27.125821
1181  2  1  4.282051 24.267192  1.428226
1187  1  1  4.280737 24.271526 18.562079
1188  1  1  4.274839 24.274538 21.422976
1189  2  1  4.281220 24.268602 24.268602
1190  2  1  4.279894 24.271006 27.128109
1191  2  1  4.283341 27.124278  1.427219
1197  1  1  4.281220 27.125403 18.561461
1198  1  1  4.276167 27.125821 21.421648
1199  2  1  4.279894 27.128109 24.271006
1200  2  1  4.291189 27.130387 27.130387
1279  1  1  7.135736 21.417078 24.271526
1280  1  1  7.136354 21.416595 27.125403
1288  1  1  7.135736 24.271526 21.417078
1289  1  1  7.137687 24.270585 24.270585
1290  1  1  7.138407 24.270583 27.125989
1298  1  1  7.136354 27.125403 21.416595
1299  1  1  7.138407 27.125989 24.270583
1300  1  1  7.139334 27.126227 27.126227
1701  1  1 21.418007  1.425598  1.425598
1709  1  1 21.417403  1.425580 24.271294
1710  1  1 21.418015  1.424696 27.123840
1720  1  1 21.419095  4.278720 27.124552
1781  1  1 21.417403 24.271294  1.425580
1789  1  1 21.411866 24.268065 24.268065
1790  1  1 21.414229 24.268805 27.126368
1791  1  1 21.418015 27.123840  1.424696
1792  1  1 21.419095 27.124552  4.278720
1799  1  1 21.414229 27.126368 24.268805
1800  1  1 21.412356 27.124971 27.124971
1801  1  1 24.289311  1.408504  1.408504
1802  1  1 24.272216  1.425598  4.279808
1808  1  1 24.271162  1.426653 21.414676
1809  2  1 24.295457  1.402358 24.291633
1810  2  1 24.286736  1.411078 27.116739
1811  1  1 24.272216  4.279808  1.425598
1819  1  1 24.272234  4.280412 24.271294
1820  1  1 24.273119  4.279800 27.123840
1871  1  1 24.271162 21.414676  1.426653
1878  1  1 24.278745 21.424290 21.424290
1879  2  1 24.269589 21.415764 24.267192
1880  2  1 24.270596 21.414474 27.124278
1881  2  1 24.295457 24.291633  1.402358
1882  1  1 24.272234 24.271294  4.280412
1888  2  1 24.269589 24.267192 21.415764
1889  2  1 24.266363 24.269371 24.269371
1890  2  1 24.271286 24.265948 27.136126
1891  2  1 24.286736 27.116739  1.411078
1892  1  1 24.273119 27.123840  4.279800
1898  2  1 24.270596 27.124278 21.414474
1899  2  1 24.271286 27.136126 24.265948
1900  2  1 24.225666 27.127137 27.127137
1901  2  1 27.134196  1.411078  1.411078
1902  1  1 27.127094  1.424696  4.279800
1908  2  1 27.126657  1.427219 21.414474
1909  2  1 27.114809  1.426529 24.265948
1910  2  1 27.123798  1.472149 27.127137
1911  1  1 27.127094  4.279800  1.424696
1912  1  1 27.126383  4.278720  4.278720
1919  1  1 27.124566  4.283586 24.268805
1920  1  1 27.125963  4.285459 27.124971
1968  1  1 27.125532 18.561461 21.416595
1969  1  1 27.124946 18.559407 24.270583
1970  1  1 27.124707 18.558481 27.126227
1971  2  1 27.126657 21.414474  1.427219
1977  1  1 27.125532 21.416595 18.561461
1978  1  1 27.125113 21.421648 21.421648
1979  2  1 27.122825 21.417921 24.271006
1980  2  1 27.120548 21.406626 27.130387
1981  2  1 27.114809 24.265948  1.426529
1982  1  1 27.124566 24.268805  4.283586
1987  1  1 27.124946 24.270583 18.559407
1988  2  1 27.122825 24.271006 21.417921
1989  2  1 27.180616 24.356717 24.356717
1990  2  1 27.134170 24.205044 27.116764
1991  2  1 27.123798 27.127137  1.472149
1992  1  1 27.125963 27.124971  4.285459
1997  1  1 27.124707 27.126227 18.558481
1998  2  1 27.120548 27.130387 21.406626
1999  2  1 27.134170 27.116764 24.205044

