Generated by pymatgen.io.lammps.data.LammpsData

1999  atoms

   2  atom types

0.000000 28.553120  xlo xhi
0.000000 28.553120  ylo yhi
0.000000 28.553120  zlo zhi
0.000000 0.000000 0.000000  xy xz yz

Masses

1  55.847000
2  30.973762

Atoms

1     0  1 28.498090 28.466447 28.466447
2     0  1  0.002760 28.552158  2.852123
3     0  1  0.000640 28.552581  5.710637
4     0  1  0.000278 28.552837  8.565920
5     0  1  0.000135 28.553046 11.421172
6     0  1  0.000025  0.000104 14.276398
7     0  1  0.000007  0.000396 17.131533
8     0  1  0.001019  0.001239 19.986458
9     0  1  0.010777  0.004096 22.843515
10    0  1 28.544535  0.064999 25.706399
11    0  1  0.002760  2.852123 28.552158
12    0  1  0.000472  2.848396  2.848396
13    0  1  0.000054  2.853449  5.708583
14    0  1  0.000112  2.854774  8.565342
15    0  1  0.000132  2.855189 11.421002
16    0  1  0.000165  2.855387 14.276384
17    0  1  0.000318  2.855501 17.131747
18    0  1  0.000590  2.855157 19.987559
19    0  1 28.552049  2.855570 22.842825
20    0  1  0.005037  2.863418 25.692777
21    0  1  0.000640  5.710637 28.552581
22    0  1  0.000054  5.708583  2.853449
23    0  1 28.553109  5.708249  5.708249
24    0  1  0.000039  5.709685  8.564859
25    0  1  0.000108  5.710357 11.420828
26    0  1  0.000168  5.710576 14.276424
27    0  1  0.000187  5.710489 17.131967
28    0  1 28.553055  5.710473 19.987242
29    0  1 28.552934  5.711167 22.841857
30    0  1  0.000878  5.711563 25.696937
31    0  1  0.000278  8.565920 28.552837
32    0  1  0.000112  8.565342  2.854774
33    0  1  0.000039  8.564859  5.709685
34    0  1  0.000045  8.565043  8.565043
35    0  1  0.000079  8.565587 11.420829
36    0  1  0.000086  8.565838 14.276476
37    0  1  0.000016  8.565885 17.131886
38    0  1 28.553061  8.566027 19.987015
39    0  1  0.000052  8.566170 22.842170
40    0  1  0.000298  8.566106 25.697516
41    0  1  0.000135 11.421172 28.553046
42    0  1  0.000132 11.421002  2.855189
43    0  1  0.000108 11.420828  5.710357
44    0  1  0.000079 11.420829  8.565587
45    0  1  0.000053 11.421072 11.421072
46    0  1  0.000020 11.421345 14.276629
47    0  1 28.553099 11.421465 17.131963
48    0  1 28.553083 11.421449 19.987155
49    0  1  0.000013 11.421360 22.842400
50    0  1  0.000094 11.421259 25.697721
51    0  1  0.000025 14.276398  0.000104
52    0  1  0.000165 14.276384  2.855387
53    0  1  0.000168 14.276424  5.710576
54    0  1  0.000086 14.276476  8.565838
55    0  1  0.000020 14.276629 11.421345
56    0  1 28.553103 14.277002 14.277002
57    0  1 28.553069 14.277256 17.132440
58    0  1 28.553038 14.277087 19.987552
59    0  1 28.553017 14.276725 22.842661
60    0  1 28.553034 14.276477 25.697901
61    0  1  0.000007 17.131533  0.000396
62    0  1  0.000318 17.131747  2.855501
63    0  1  0.000187 17.131967  5.710489
64    0  1  0.000016 17.131886  8.565885
65    0  1 28.553099 17.131963 11.421465
66    0  1 28.553069 17.132440 14.277256
67    0  1 28.552979 17.133342 17.133342
68    0  1 28.552853 17.133440 19.988587
69    0  1 28.552762 17.132481 22.843194
70    0  1 28.552809 17.131593 25.698126
71    0  1  0.001019 19.986458  0.001239
72    0  1  0.000590 19.987559  2.855157
73    0  1 28.553055 19.987242  5.710473
74    0  1 28.553061 19.987015  8.566027
75    0  1 28.553083 19.987155 11.421449
76    0  1 28.553038 19.987552 14.277087
77    0  1 28.552853 19.988587 17.133440
78    0  1 28.552323 19.991324 19.991324
79    0  1 28.551611 19.990244 22.845348
80    0  1 28.552742 19.984585 25.698192
81    0  1  0.010777 22.843515  0.004096
82    0  1 28.552049 22.842825  2.855570
83    0  1 28.552934 22.841857  5.711167
84    0  1  0.000052 22.842170  8.566170
85    0  1  0.000013 22.842400 11.421360
86    0  1 28.553017 22.842661 14.276725
87    0  1 28.552762 22.843194 17.132481
88    0  1 28.551611 22.845348 19.990244
89    0  1 28.544510 22.858966 22.858966
90    0  1  0.001788 22.797895 25.696027
91    0  1 28.544535 25.706399  0.064999
92    0  1  0.005037 25.692777  2.863418
93    0  1  0.000878 25.696937  5.711563
94    0  1  0.000298 25.697516  8.566106
95    0  1  0.000094 25.697721 11.421259
96    0  1 28.553034 25.697901 14.276477
97    0  1 28.552809 25.698126 17.131593
98    0  1 28.552742 25.698192 19.984585
99    0  1  0.001788 25.696027 22.797895
100   0  1 27.839353 26.411582 26.411582
101   0  1  2.859223  0.000672  0.000672
102   0  1  2.855997  0.002852  2.854280
103   0  1  2.855734  0.000395  5.710407
104   0  1  2.855556  0.000016  8.565902
105   0  1  2.855440 28.553119 11.421233
106   0  1  2.855294  0.000009 14.276582
107   0  1  2.854989 28.553038 17.132146
108   0  1  2.853351 28.551869 19.989632
109   0  1  2.830129 28.531530 22.867686
110   0  1  2.854300  0.004096 25.687038
111   0  1  2.855997  2.854280  0.002852
112   0  1  2.846841  2.845754  2.845754
113   0  1  2.854086  2.853775  5.708737
114   0  1  2.855175  2.854992  8.565479
115   0  1  2.855386  2.855245 11.421107
116   0  1  2.855445  2.855291 14.276573
117   0  1  2.855546  2.855177 17.132189
118   0  1  2.856079  2.854719 19.988284
119   0  1  2.854424  2.855368 22.843391
120   0  1  2.854990  2.855570 25.698886
121   0  1  2.855734  5.710407  0.000395
122   0  1  2.854086  5.708737  2.853775
123   0  1  2.854535  5.708595  5.708595
124   0  1  2.855039  5.709868  8.565044
125   0  1  2.855322  5.710419 11.420956
126   0  1  2.855456  5.710545 14.276575
127   0  1  2.855503  5.710420 17.132162
128   0  1  2.855409  5.710626 19.987341
129   0  1  2.856081  5.711814 22.841734
130   0  1  2.855958  5.711167 25.698001
131   0  1  2.855556  8.565902  0.000016
132   0  1  2.855175  8.565479  2.854992
133   0  1  2.855039  8.565044  5.709868
134   0  1  2.855140  8.565196  8.565196
135   0  1  2.855287  8.565669 11.420946
136   0  1  2.855360  8.565887 14.276573
137   0  1  2.855350  8.565980 17.131945
138   0  1  2.855364  8.566199 19.987053
139   0  1  2.855582  8.566378 22.842233
140   0  1  2.855645  8.566170 25.697763
141   0  1  2.855440 11.421233 28.553119
142   0  1  2.855386 11.421107  2.855245
143   0  1  2.855322 11.420956  5.710419
144   0  1  2.855287 11.420946  8.565669
145   0  1  2.855271 11.421163 11.421163
146   0  1  2.855249 11.421437 14.276710
147   0  1  2.855228 11.421595 17.132037
148   0  1  2.855251 11.421611 19.987232
149   0  1  2.855339 11.421510 22.842475
150   0  1  2.855415 11.421360 25.697801
151   0  1  2.855294 14.276582  0.000009
152   0  1  2.855445 14.276573  2.855291
153   0  1  2.855456 14.276575  5.710545
154   0  1  2.855360 14.276573  8.565887
155   0  1  2.855249 14.276710 11.421437
156   0  1  2.855127 14.277106 14.277106
157   0  1  2.855010 14.277412 17.132567
158   0  1  2.854967 14.277317 19.987705
159   0  1  2.855059 14.276990 22.842756
160   0  1  2.855154 14.276725 25.697917
161   0  1  2.854989 17.132146 28.553038
162   0  1  2.855546 17.132189  2.855177
163   0  1  2.855503 17.132162  5.710420
164   0  1  2.855350 17.131945  8.565980
165   0  1  2.855228 17.132037 11.421595
166   0  1  2.855010 17.132567 14.277412
167   0  1  2.854606 17.133530 17.133530
168   0  1  2.854231 17.133804 19.988863
169   0  1  2.854558 17.132964 22.843256
170   0  1  2.854621 17.132481 25.698173
171   0  1  2.853351 19.989632 28.551869
172   0  1  2.856079 19.988284  2.854719
173   0  1  2.855409 19.987341  5.710626
174   0  1  2.855364 19.987053  8.566199
175   0  1  2.855251 19.987232 11.421611
176   0  1  2.854967 19.987705 14.277317
177   0  1  2.854231 19.988863 17.133804
178   0  1  2.852581 19.991716 19.991716
179   0  1  2.853369 19.990236 22.844445
180   0  1  2.852467 19.990244 25.699323
181   0  1  2.830129 22.867686 28.531530
182   0  1  2.854424 22.843391  2.855368
183   0  1  2.856081 22.841734  5.711814
184   0  1  2.855582 22.842233  8.566378
185   0  1  2.855339 22.842475 11.421510
186   0  1  2.855059 22.842756 14.276990
187   0  1  2.854558 22.843256 17.132964
188   0  1  2.853369 22.844445 19.990236
189   0  1  2.836275 22.861540 22.861540
190   0  1  2.838849 22.858966 25.706425
191   0  1  2.854300 25.687038  0.004096
192   0  1  2.854990 25.698886  2.855570
193   0  1  2.855958 25.698001  5.711167
194   0  1  2.855645 25.697763  8.566170
195   0  1  2.855415 25.697801 11.421360
196   0  1  2.855154 25.697917 14.276725
197   0  1  2.854621 25.698173 17.132481
198   0  1  2.852467 25.699323 19.990244
199   0  1  2.838849 25.706425 22.858966
200   0  1  2.899920 25.696027 25.696027
201   0  1  5.713720  0.001979  0.001979
202   0  1  5.710876 28.552995  2.855044
203   0  1  5.710497  0.000250  5.710117
204   0  1  5.710735  0.000132  8.565800
205   0  1  5.710690  0.000020 11.421300
206   0  1  5.710404 28.553008 14.276916
207   0  1  5.709527 28.552721 17.133140
208   0  1  5.707062 28.552274 19.990752
209   0  1  5.708183 28.551869 22.844464
210   0  1  5.711356  0.001239 25.696795
211   0  1  5.710876  2.855044 28.552995
212   0  1  5.710176  2.854370  2.854370
213   0  1  5.710101  2.855235  5.709688
214   0  1  5.710518  2.855281  8.565540
215   0  1  5.710647  2.855260 11.421174
216   0  1  5.710506  2.855079 14.276820
217   0  1  5.709761  2.854374 17.133004
218   0  1  5.706773  2.851677 19.991042
219   0  1  5.709531  2.854719 22.841736
220   0  1  5.710256  2.855157 25.697224
221   0  1  5.710497  5.710117  0.000250
222   0  1  5.710101  5.709688  2.855235
223   0  1  5.709091  5.708826  5.708826
224   0  1  5.710161  5.710031  8.565185
225   0  1  5.710556  5.710436 11.421052
226   0  1  5.710625  5.710432 14.276722
227   0  1  5.710501  5.710176 17.132404
228   0  1  5.710078  5.710137 19.987737
229   0  1  5.710474  5.710626 22.842406
230   0  1  5.710573  5.710473 25.697880
231   0  1  5.710735  8.565800  0.000132
232   0  1  5.710518  8.565540  2.855281
233   0  1  5.710161  8.565185  5.710031
234   0  1  5.710324  8.565338  8.565338
235   0  1  5.710521  8.565719 11.421039
236   0  1  5.710598  8.565883 14.276653
237   0  1  5.710594  8.565981 17.132020
238   0  1  5.710676  8.566204 19.987139
239   0  1  5.710761  8.566199 22.842451
240   0  1  5.710799  8.566027 25.697873
241   0  1  5.710690 11.421300  0.000020
242   0  1  5.710647 11.421174  2.855260
243   0  1  5.710556 11.421052  5.710436
244   0  1  5.710521 11.421039  8.565719
245   0  1  5.710509 11.421222 11.421222
246   0  1  5.710480 11.421484 14.276762
247   0  1  5.710459 11.421668 17.132097
248   0  1  5.710512 11.421716 19.987303
249   0  1  5.710583 11.421611 22.842564
250   0  1  5.710660 11.421449 25.697851
251   0  1  5.710404 14.276916 28.553008
252   0  1  5.710506 14.276820  2.855079
253   0  1  5.710625 14.276722  5.710432
254   0  1  5.710598 14.276653  8.565883
255   0  1  5.710480 14.276762 11.421484
256   0  1  5.710281 14.277151 14.277151
257   0  1  5.710079 14.277493 17.132623
258   0  1  5.710049 14.277485 19.987766
259   0  1  5.710110 14.277317 22.842848
260   0  1  5.710263 14.277087 25.697897
261   0  1  5.709527 17.133140 28.552721
262   0  1  5.709761 17.133004  2.854374
263   0  1  5.710501 17.132404  5.710176
264   0  1  5.710594 17.132020  8.565981
265   0  1  5.710459 17.132097 11.421668
266   0  1  5.710079 17.132623 14.277493
267   0  1  5.709429 17.133542 17.133542
268   0  1  5.709018 17.133887 19.988797
269   0  1  5.708952 17.133804 22.843584
270   0  1  5.709228 17.133440 25.698082
271   0  1  5.707062 19.990752 28.552274
272   0  1  5.706773 19.991042  2.851677
273   0  1  5.710078 19.987737  5.710137
274   0  1  5.710676 19.987139  8.566204
275   0  1  5.710512 19.987303 11.421716
276   0  1  5.710049 19.987766 14.277485
277   0  1  5.709018 19.988797 17.133887
278   0  1  5.706119 19.991695 19.991695
279   0  1  5.706098 19.991716 22.845234
280   0  1  5.706490 19.991324 25.698612
281   0  1  5.708183 22.844464 28.551869
282   0  1  5.709531 22.841736  2.854719
283   0  1  5.710474 22.842406  5.710626
284   0  1  5.710761 22.842451  8.566199
285   0  1  5.710583 22.842564 11.421611
286   0  1  5.710110 22.842848 14.277317
287   0  1  5.708952 22.843584 17.133804
288   0  1  5.706098 22.845234 19.991716
289   0  1  5.707579 22.844445 22.844445
290   0  1  5.707571 22.845348 25.699323
291   0  1  5.711356 25.696795  0.001239
292   0  1  5.710256 25.697224  2.855157
293   0  1  5.710573 25.697880  5.710473
294   0  1  5.710799 25.697873  8.566027
295   0  1  5.710660 25.697851 11.421449
296   0  1  5.710263 25.697897 14.277087
297   0  1  5.709228 25.698082 17.133440
298   0  1  5.706490 25.698612 19.991324
299   0  1  5.707571 25.699323 22.845348
300   0  1  5.713230 25.698192 25.698192
301   0  1  8.566709  0.000392  0.000392
302   0  1  8.566406 28.553035  2.855525
303   0  1  8.566004 28.553055  5.710459
304   0  1  8.565960  0.000018  8.565766
305   0  1  8.565906 28.553095 11.421333
306   0  1  8.565506 28.552975 14.277098
307   0  1  8.564699 28.552798 17.133116
308   0  1  8.564675 28.552721 19.988288
309   0  1  8.565669 28.553038 22.842825
310   0  1  8.566281  0.000396 25.697808
311   0  1  8.566406  2.855525 28.553035
312   0  1  8.566536  2.855465  2.855465
313   0  1  8.566030  2.855241  5.710367
314   0  1  8.565927  2.855271  8.565646
315   0  1  8.565917  2.855218 11.421224
316   0  1  8.565610  2.855024 14.276965
317   0  1  8.564923  2.854663 17.132892
318   0  1  8.564811  2.854374 19.988053
319   0  1  8.565625  2.855177 22.842269
320   0  1  8.566067  2.855501 25.697497
321   0  1  8.566004  5.710459 28.553055
322   0  1  8.566030  5.710367  2.855241
323   0  1  8.565770  5.710173  5.710173
324   0  1  8.565799  5.710377  8.565524
325   0  1  8.565877  5.710443 11.421139
326   0  1  8.565696  5.710284 14.276852
327   0  1  8.565174  5.709850 17.132641
328   0  1  8.565410  5.710176 19.987313
329   0  1  8.565652  5.710420 22.842312
330   0  1  8.565847  5.710489 25.697628
331   0  1  8.565960  8.565766  0.000018
332   0  1  8.565927  8.565646  2.855271
333   0  1  8.565799  8.565524  5.710377
334   0  1  8.565685  8.565490  8.565490
335   0  1  8.565822  8.565732 11.421100
336   0  1  8.565814  8.565814 14.276702
337   0  1  8.565713  8.565844 17.132101
338   0  1  8.565795  8.565981 19.987220
339   0  1  8.565870  8.565980 22.842465
340   0  1  8.565928  8.565885 25.697799
341   0  1  8.565906 11.421333 28.553095
342   0  1  8.565917 11.421224  2.855218
343   0  1  8.565877 11.421139  5.710443
344   0  1  8.565822 11.421100  8.565732
345   0  1  8.565802 11.421232 11.421232
346   0  1  8.565746 11.421446 14.276762
347   0  1  8.565702 11.421616 17.132113
348   0  1  8.565717 11.421668 19.987356
349   0  1  8.565778 11.421595 22.842587
350   0  1  8.565851 11.421465 25.697836
351   0  1  8.565506 14.277098 28.552975
352   0  1  8.565610 14.276965  2.855024
353   0  1  8.565696 14.276852  5.710284
354   0  1  8.565814 14.276702  8.565814
355   0  1  8.565746 14.276762 11.421446
356   0  1  8.565517 14.277087 14.277087
357   0  1  8.565279 14.277397 17.132535
358   0  1  8.565192 14.277493 19.987736
359   0  1  8.565248 14.277412 22.842805
360   0  1  8.565375 14.277256 25.697866
361   0  1  8.564699 17.133116 28.552798
362   0  1  8.564923 17.132892  2.854663
363   0  1  8.565174 17.132641  5.709850
364   0  1  8.565713 17.132101  8.565844
365   0  1  8.565702 17.132113 11.421616
366   0  1  8.565279 17.132535 14.277397
367   0  1  8.564537 17.133278 17.133278
368   0  1  8.564273 17.133542 19.988385
369   0  1  8.564285 17.133530 22.843209
370   0  1  8.564473 17.133342 25.697956
371   0  1  8.564675 19.988288 28.552721
372   0  1  8.564811 19.988053  2.854374
373   0  1  8.565410 19.987313  5.710176
374   0  1  8.565795 19.987220  8.565981
375   0  1  8.565717 19.987356 11.421668
376   0  1  8.565192 19.987736 14.277493
377   0  1  8.564273 19.988385 17.133542
378   0  1  8.563927 19.988797 19.988797
379   0  1  8.564010 19.988863 22.843584
380   0  1  8.564374 19.988587 25.698082
381   0  1  8.565669 22.842825 28.553038
382   0  1  8.565625 22.842269  2.855177
383   0  1  8.565652 22.842312  5.710420
384   0  1  8.565870 22.842465  8.565980
385   0  1  8.565778 22.842587 11.421595
386   0  1  8.565248 22.842805 14.277412
387   0  1  8.564285 22.843209 17.133530
388   0  1  8.564010 22.843584 19.988863
389   0  1  8.564851 22.843256 22.843256
390   0  1  8.565334 22.843194 25.698173
391   0  1  8.566281 25.697808  0.000396
392   0  1  8.566067 25.697497  2.855501
393   0  1  8.565847 25.697628  5.710489
394   0  1  8.565928 25.697799  8.565885
395   0  1  8.565851 25.697836 11.421465
396   0  1  8.565375 25.697866 14.277256
397   0  1  8.564473 25.697956 17.133342
398   0  1  8.564374 25.698082 19.988587
399   0  1  8.565334 25.698173 22.843194
400   0  1  8.566221 25.698126 25.698126
401   0  1 11.421549  0.000049  0.000049
402   0  1 11.421607 28.553030  2.855361
403   0  1 11.421546 28.552983  5.710546
404   0  1 11.421441 28.553012  8.565770
405   0  1 11.421270 28.553028 11.421245
406   0  1 11.420928 28.553001 14.276887
407   0  1 11.420717 28.552975 17.132309
408   0  1 11.420899 28.553008 19.987411
409   0  1 11.421233  0.000009 22.842521
410   0  1 11.421416  0.000104 25.697789
411   0  1 11.421607  2.855361 28.553030
412   0  1 11.421736  2.855288  2.855288
413   0  1 11.421657  2.855176  5.710483
414   0  1 11.421512  2.855158  8.565704
415   0  1 11.421330  2.855146 11.421162
416   0  1 11.421029  2.855084 14.276785
417   0  1 11.420849  2.855024 17.132204
418   0  1 11.420995  2.855079 19.987309
419   0  1 11.421241  2.855291 22.842370
420   0  1 11.421431  2.855387 25.697650
421   0  1 11.421546  5.710546 28.552983
422   0  1 11.421657  5.710483  2.855176
423   0  1 11.421642  5.710417  5.710417
424   0  1 11.421503  5.710393  8.565657
425   0  1 11.421340  5.710401 11.421113
426   0  1 11.421103  5.710347 14.276711
427   0  1 11.420962  5.710284 17.132119
428   0  1 11.421093  5.710432 19.987190
429   0  1 11.421239  5.710545 22.842359
430   0  1 11.421390  5.710576 25.697646
431   0  1 11.421441  8.565770 28.553012
432   0  1 11.421512  8.565704  2.855158
433   0  1 11.421503  8.565657  5.710393
434   0  1 11.421396  8.565648  8.565648
435   0  1 11.421290  8.565721 11.421113
436   0  1 11.421146  8.565743 14.276669
437   0  1 11.421113  8.565814 17.132001
438   0  1 11.421162  8.565883 19.987217
439   0  1 11.421241  8.565887 22.842455
440   0  1 11.421339  8.565838 25.697729
441   0  1 11.421270 11.421245 28.553028
442   0  1 11.421330 11.421162  2.855146
443   0  1 11.421340 11.421113  5.710401
444   0  1 11.421290 11.421113  8.565721
445   0  1 11.421211 11.421184 11.421184
446   0  1 11.421113 11.421323 14.276701
447   0  1 11.421053 11.421446 17.132069
448   0  1 11.421052 11.421484 19.987335
449   0  1 11.421104 11.421437 22.842565
450   0  1 11.421186 11.421345 25.697794
451   0  1 11.420928 14.276887 28.553001
452   0  1 11.421029 14.276785  2.855084
453   0  1 11.421103 14.276711  5.710347
454   0  1 11.421146 14.276669  8.565743
455   0  1 11.421113 14.276701 11.421323
456   0  1 11.420908 14.276907 14.276907
457   0  1 11.420728 14.277087 17.132298
458   0  1 11.420664 14.277151 19.987534
459   0  1 11.420709 14.277106 22.842687
460   0  1 11.420812 14.277002 25.697832
461   0  1 11.420717 17.132309 28.552975
462   0  1 11.420849 17.132204  2.855024
463   0  1 11.420962 17.132119  5.710284
464   0  1 11.421113 17.132001  8.565814
465   0  1 11.421053 17.132069 11.421446
466   0  1 11.420728 17.132298 14.277087
467   0  1 11.420418 17.132535 17.132535
468   0  1 11.420322 17.132623 19.987736
469   0  1 11.420403 17.132567 22.842805
470   0  1 11.420559 17.132440 25.697866
471   0  1 11.420899 19.987411 28.553008
472   0  1 11.420995 19.987309  2.855079
473   0  1 11.421093 19.987190  5.710432
474   0  1 11.421162 19.987217  8.565883
475   0  1 11.421052 19.987335 11.421484
476   0  1 11.420664 19.987534 14.277151
477   0  1 11.420322 19.987736 17.132623
478   0  1 11.420330 19.987766 19.987766
479   0  1 11.420498 19.987705 22.842848
480   0  1 11.420728 19.987552 25.697897
481   0  1 11.421233 22.842521  0.000009
482   0  1 11.421241 22.842370  2.855291
483   0  1 11.421239 22.842359  5.710545
484   0  1 11.421241 22.842455  8.565887
485   0  1 11.421104 22.842565 11.421437
486   0  1 11.420709 22.842687 14.277106
487   0  1 11.420403 22.842805 17.132567
488   0  1 11.420498 22.842848 19.987705
489   0  1 11.420825 22.842756 22.842756
490   0  1 11.421090 22.842661 25.697917
491   0  1 11.421416 25.697789  0.000104
492   0  1 11.421431 25.697650  2.855387
493   0  1 11.421390 25.697646  5.710576
494   0  1 11.421339 25.697729  8.565838
495   0  1 11.421186 25.697794 11.421345
496   0  1 11.420812 25.697832 14.277002
497   0  1 11.420559 25.697866 17.132440
498   0  1 11.420728 25.697897 19.987552
499   0  1 11.421090 25.697917 22.842661
500   0  1 11.421338 25.697901 25.697901
501   0  1 14.276780 28.552978 28.552978
502   0  1 14.276982 28.552914  2.855091
503   0  1 14.277150 28.552896  5.710255
504   0  1 14.277112 28.552923  8.565490
505   0  1 14.276838 28.552971 11.420976
506   0  1 14.276570 28.553028 14.276545
507   0  1 14.276482 28.553095 17.131909
508   0  1 14.276514  0.000020 19.987125
509   0  1 14.276582 28.553119 22.842375
510   0  1 14.276643 28.553046 25.697680
511   0  1 14.276982  2.855091 28.552914
512   0  1 14.277176  2.855003  2.855003
513   0  1 14.277302  2.854939  5.710158
514   0  1 14.277209  2.854976  8.565413
515   0  1 14.276911  2.855061 11.420904
516   0  1 14.276653  2.855146 14.276485
517   0  1 14.276591  2.855218 17.131898
518   0  1 14.276641  2.855260 19.987168
519   0  1 14.276707  2.855245 22.842429
520   0  1 14.276812  2.855189 25.697683
521   0  1 14.277150  5.710255 28.552896
522   0  1 14.277302  5.710158  2.854939
523   0  1 14.277348  5.710129  5.710129
524   0  1 14.277218  5.710175  8.565399
525   0  1 14.276926  5.710300 11.420888
526   0  1 14.276702  5.710401 14.276475
527   0  1 14.276675  5.710443 17.131938
528   0  1 14.276763  5.710436 19.987258
529   0  1 14.276858  5.710419 22.842492
530   0  1 14.276987  5.710357 25.697707
531   0  1 14.277112  8.565490 28.552923
532   0  1 14.277209  8.565413  2.854976
533   0  1 14.277218  8.565399  5.710175
534   0  1 14.277089  8.565475  8.565475
535   0  1 14.276861  8.565623 11.420954
536   0  1 14.276701  8.565721 14.276524
537   0  1 14.276715  8.565732 17.131992
538   0  1 14.276776  8.565719 19.987294
539   0  1 14.276869  8.565669 22.842528
540   0  1 14.276986  8.565587 25.697736
541   0  1 14.276838 11.420976 28.552971
542   0  1 14.276911 11.420904  2.855061
543   0  1 14.276926 11.420888  5.710300
544   0  1 14.276861 11.420954  8.565623
545   0  1 14.276737 11.421077 11.421077
546   0  1 14.276631 11.421184 14.276604
547   0  1 14.276583 11.421232 17.132013
548   0  1 14.276592 11.421222 19.987306
549   0  1 14.276652 11.421163 22.842544
550   0  1 14.276743 11.421072 25.697762
551   0  1 14.276570 14.276545 28.553028
552   0  1 14.276653 14.276485  2.855146
553   0  1 14.276702 14.276475  5.710401
554   0  1 14.276701 14.276524  8.565721
555   0  1 14.276631 14.276604 11.421184
556   0  1 14.276492 14.276701 14.276701
557   0  1 14.276369 14.276762 17.132069
558   0  1 14.276331 14.276762 19.987335
559   0  1 14.276378 14.276710 22.842565
560   0  1 14.276470 14.276629 25.697794
561   0  1 14.276482 17.131909 28.553095
562   0  1 14.276591 17.131898  2.855218
563   0  1 14.276675 17.131938  5.710443
564   0  1 14.276715 17.131992  8.565732
565   0  1 14.276583 17.132013 11.421232
566   0  1 14.276369 17.132069 14.276762
567   0  1 14.276199 17.132113 17.132113
568   0  1 14.276147 17.132097 19.987356
569   0  1 14.276220 17.132037 22.842587
570   0  1 14.276350 17.131963 25.697836
571   0  1 14.276514 19.987125  0.000020
572   0  1 14.276641 19.987168  2.855260
573   0  1 14.276763 19.987258  5.710436
574   0  1 14.276776 19.987294  8.565719
575   0  1 14.276592 19.987306 11.421222
576   0  1 14.276331 19.987335 14.276762
577   0  1 14.276147 19.987356 17.132097
578   0  1 14.276099 19.987303 19.987303
579   0  1 14.276204 19.987232 22.842564
580   0  1 14.276365 19.987155 25.697851
581   0  1 14.276582 22.842375 28.553119
582   0  1 14.276707 22.842429  2.855245
583   0  1 14.276858 22.842492  5.710419
584   0  1 14.276869 22.842528  8.565669
585   0  1 14.276652 22.842544 11.421163
586   0  1 14.276378 22.842565 14.276710
587   0  1 14.276220 22.842587 17.132037
588   0  1 14.276204 22.842564 19.987232
589   0  1 14.276305 22.842475 22.842475
590   0  1 14.276455 22.842400 25.697801
591   0  1 14.276643 25.697680 28.553046
592   0  1 14.276812 25.697683  2.855189
593   0  1 14.276987 25.697707  5.710357
594   0  1 14.276986 25.697736  8.565587
595   0  1 14.276743 25.697762 11.421072
596   0  1 14.276470 25.697794 14.276629
597   0  1 14.276350 25.697836 17.131963
598   0  1 14.276365 25.697851 19.987155
599   0  1 14.276455 25.697801 22.842400
600   0  1 14.276556 25.697721 25.697721
601   0  1 17.132207 28.552738 28.552738
602   0  1 17.132775 28.552617  2.854553
603   0  1 17.133184 28.552667  5.709482
604   0  1 17.132924 28.552797  8.564890
605   0  1 17.132325 28.552923 11.420703
606   0  1 17.132045 28.553012 14.276374
607   0  1 17.132048  0.000018 17.131855
608   0  1 17.132015  0.000132 19.987080
609   0  1 17.131913  0.000016 22.842259
610   0  1 17.131895 28.552837 25.697537
611   0  1 17.132775  2.854553 28.552617
612   0  1 17.133091  2.854459  2.854459
613   0  1 17.133374  2.854396  5.709346
614   0  1 17.133025  2.854677  8.564790
615   0  1 17.132402  2.854976 11.420605
616   0  1 17.132111  2.855158 14.276303
617   0  1 17.132169  2.855271 17.131887
618   0  1 17.132275  2.855281 19.987297
619   0  1 17.132336  2.854992 22.842639
620   0  1 17.132473  2.854774 25.697703
621   0  1 17.133184  5.709482 28.552667
622   0  1 17.133374  5.709346  2.854396
623   0  1 17.133348  5.709426  5.709426
624   0  1 17.132983  5.709765  8.564832
625   0  1 17.132416  5.710175 11.420597
626   0  1 17.132158  5.710393 14.276312
627   0  1 17.132291  5.710377 17.132016
628   0  1 17.132630  5.710031 19.987653
629   0  1 17.132770  5.709868 22.842776
630   0  1 17.132956  5.709685 25.697776
631   0  1 17.132924  8.564890 28.552797
632   0  1 17.133025  8.564790  2.854677
633   0  1 17.132983  8.564832  5.709765
634   0  1 17.132750  8.565065  8.565065
635   0  1 17.132339  8.565475 11.420726
636   0  1 17.132167  8.565648 14.276419
637   0  1 17.132325  8.565490 17.132129
638   0  1 17.132476  8.565338 19.987491
639   0  1 17.132619  8.565196 22.842675
640   0  1 17.132772  8.565043 25.697769
641   0  1 17.132325 11.420703 28.552923
642   0  1 17.132402 11.420605  2.854976
643   0  1 17.132416 11.420597  5.710175
644   0  1 17.132339 11.420726  8.565475
645   0  1 17.132192 11.420954 11.420954
646   0  1 17.132094 11.421113 14.276524
647   0  1 17.132083 11.421100 17.131992
648   0  1 17.132096 11.421039 19.987294
649   0  1 17.132146 11.420946 22.842528
650   0  1 17.132228 11.420829 25.697736
651   0  1 17.132045 14.276374 28.553012
652   0  1 17.132111 14.276303  2.855158
653   0  1 17.132158 14.276312  5.710393
654   0  1 17.132167 14.276419  8.565648
655   0  1 17.132094 14.276524 11.421113
656   0  1 17.132072 14.276669 14.276669
657   0  1 17.132001 14.276702 17.132001
658   0  1 17.131932 14.276653 19.987217
659   0  1 17.131928 14.276573 22.842455
660   0  1 17.131976 14.276476 25.697729
661   0  1 17.132048 17.131855  0.000018
662   0  1 17.132169 17.131887  2.855271
663   0  1 17.132291 17.132016  5.710377
664   0  1 17.132325 17.132129  8.565490
665   0  1 17.132083 17.131992 11.421100
666   0  1 17.132001 17.132001 14.276702
667   0  1 17.131970 17.132101 17.132101
668   0  1 17.131833 17.132020 19.987220
669   0  1 17.131835 17.131945 22.842465
670   0  1 17.131929 17.131886 25.697799
671   0  1 17.132015 19.987080  0.000132
672   0  1 17.132275 19.987297  2.855281
673   0  1 17.132630 19.987653  5.710031
674   0  1 17.132476 19.987491  8.565338
675   0  1 17.132096 19.987294 11.421039
676   0  1 17.131932 19.987217 14.276653
677   0  1 17.131833 19.987220 17.132020
678   0  1 17.131610 19.987139 19.987139
679   0  1 17.131616 19.987053 22.842451
680   0  1 17.131787 19.987015 25.697873
681   0  1 17.131913 22.842259  0.000016
682   0  1 17.132336 22.842639  2.854992
683   0  1 17.132770 22.842776  5.709868
684   0  1 17.132619 22.842675  8.565196
685   0  1 17.132146 22.842528 11.420946
686   0  1 17.131928 22.842455 14.276573
687   0  1 17.131835 22.842465 17.131945
688   0  1 17.131616 22.842451 19.987053
689   0  1 17.131437 22.842233 22.842233
690   0  1 17.131644 22.842170 25.697763
691   0  1 17.131895 25.697537 28.552837
692   0  1 17.132473 25.697703  2.854774
693   0  1 17.132956 25.697776  5.709685
694   0  1 17.132772 25.697769  8.565043
695   0  1 17.132228 25.697736 11.420829
696   0  1 17.131976 25.697729 14.276476
697   0  1 17.131929 25.697799 17.131886
698   0  1 17.131787 25.697873 19.987015
699   0  1 17.131644 25.697763 22.842170
700   0  1 17.131709 25.697516 25.697516
701   0  1 19.987899 28.552578 28.552578
702   0  1 19.989850 28.551638  2.852966
703   0  1 19.989891 28.552156  5.707924
704   0  1 19.988333 28.552667  8.564630
705   0  1 19.987559 28.552896 11.420665
706   0  1 19.987269 28.552983 14.276269
707   0  1 19.987356 28.553055 17.131811
708   0  1 19.987698  0.000250 19.987318
709   0  1 19.987407  0.000395 22.842081
710   0  1 19.987178 28.552581 25.697175
711   0  1 19.989850  2.852966 28.551638
712   0  1 19.990033  2.853102  2.853102
713   0  1 19.990016  2.853381  5.707799
714   0  1 19.988469  2.854396  8.564441
715   0  1 19.987656  2.854939 11.420513
716   0  1 19.987332  2.855176 14.276157
717   0  1 19.987448  2.855241 17.131784
718   0  1 19.988127  2.855235 19.987714
719   0  1 19.989078  2.853775 22.843728
720   0  1 19.989232  2.853449 25.697761
721   0  1 19.989891  5.707924 28.552156
722   0  1 19.990016  5.707799  2.853381
723   0  1 19.989782  5.708033  5.708033
724   0  1 19.988389  5.709426  8.564466
725   0  1 19.987686  5.710129 11.420466