Generated by pymatgen.io.lammps.data.LammpsData

1999  atoms

   2  atom types

0.000000 28.553120  xlo xhi
0.000000 28.553120  ylo yhi
0.000000 28.553120  zlo zhi
0.0 0.0 0.0 xy xz yz

Masses

1  55.845
2  30.2

Atoms

1     1  0.000000  0.000000  0.000000
2     1  0.000000  0.000000  2.855312
3     1  0.000000  0.000000  5.710624
4     1  0.000000  0.000000  8.565936
5     1  0.000000  0.000000 11.421248
6     1  0.000000  0.000000 14.276560
7     1  0.000000  0.000000 17.131872
8     1  0.000000  0.000000 19.987184
9     1  0.000000  0.000000 22.842496
10    1  0.000000  0.000000 25.697808
11    1  0.000000  2.855312  0.000000
12    1  0.000000  2.855312  2.855312
13    1  0.000000  2.855312  5.710624
14    1  0.000000  2.855312  8.565936
15    1  0.000000  2.855312 11.421248
16    1  0.000000  2.855312 14.276560
17    1  0.000000  2.855312 17.131872
18    1  0.000000  2.855312 19.987184
19    1  0.000000  2.855312 22.842496
20    1  0.000000  2.855312 25.697808
21    1  0.000000  5.710624  0.000000
22    1  0.000000  5.710624  2.855312
23    1  0.000000  5.710624  5.710624
24    1  0.000000  5.710624  8.565936
25    1  0.000000  5.710624 11.421248
26    1  0.000000  5.710624 14.276560
27    1  0.000000  5.710624 17.131872
28    1  0.000000  5.710624 19.987184
29    1  0.000000  5.710624 22.842496
30    1  0.000000  5.710624 25.697808
31    1  0.000000  8.565936  0.000000
32    1  0.000000  8.565936  2.855312
33    1  0.000000  8.565936  5.710624
34    1  0.000000  8.565936  8.565936
35    1  0.000000  8.565936 11.421248
36    1  0.000000  8.565936 14.276560
37    1  0.000000  8.565936 17.131872
38    1  0.000000  8.565936 19.987184
39    1  0.000000  8.565936 22.842496
40    1  0.000000  8.565936 25.697808
41    1  0.000000 11.421248  0.000000
42    1  0.000000 11.421248  2.855312
43    1  0.000000 11.421248  5.710624
44    1  0.000000 11.421248  8.565936
45    1  0.000000 11.421248 11.421248
46    1  0.000000 11.421248 14.276560
47    1  0.000000 11.421248 17.131872
48    1  0.000000 11.421248 19.987184
49    1  0.000000 11.421248 22.842496
50    1  0.000000 11.421248 25.697808
51    1  0.000000 14.276560  0.000000
52    1  0.000000 14.276560  2.855312
53    1  0.000000 14.276560  5.710624
54    1  0.000000 14.276560  8.565936
55    1  0.000000 14.276560 11.421248
56    1  0.000000 14.276560 14.276560
57    1  0.000000 14.276560 17.131872
58    1  0.000000 14.276560 19.987184
59    1  0.000000 14.276560 22.842496
60    1  0.000000 14.276560 25.697808
61    1  0.000000 17.131872  0.000000
62    1  0.000000 17.131872  2.855312
63    1  0.000000 17.131872  5.710624
64    1  0.000000 17.131872  8.565936
65    1  0.000000 17.131872 11.421248
66    1  0.000000 17.131872 14.276560
67    1  0.000000 17.131872 17.131872
68    1  0.000000 17.131872 19.987184
69    1  0.000000 17.131872 22.842496
70    1  0.000000 17.131872 25.697808
71    1  0.000000 19.987184  0.000000
72    1  0.000000 19.987184  2.855312
73    1  0.000000 19.987184  5.710624
74    1  0.000000 19.987184  8.565936
75    1  0.000000 19.987184 11.421248
76    1  0.000000 19.987184 14.276560
77    1  0.000000 19.987184 17.131872
78    1  0.000000 19.987184 19.987184
79    1  0.000000 19.987184 22.842496
80    1  0.000000 19.987184 25.697808
81    1  0.000000 22.842496  0.000000
82    1  0.000000 22.842496  2.855312
83    1  0.000000 22.842496  5.710624
84    1  0.000000 22.842496  8.565936
85    1  0.000000 22.842496 11.421248
86    1  0.000000 22.842496 14.276560
87    1  0.000000 22.842496 17.131872
88    1  0.000000 22.842496 19.987184
89    1  0.000000 22.842496 22.842496
90    1  0.000000 22.842496 25.697808
91    1  0.000000 25.697808  0.000000
92    1  0.000000 25.697808  2.855312
93    1  0.000000 25.697808  5.710624
94    1  0.000000 25.697808  8.565936
95    1  0.000000 25.697808 11.421248
96    1  0.000000 25.697808 14.276560
97    1  0.000000 25.697808 17.131872
98    1  0.000000 25.697808 19.987184
99    1  0.000000 25.697808 22.842496
100   1  0.000000 25.697808 25.697808
101   1  2.855312  0.000000  0.000000
102   1  2.855312  0.000000  2.855312
103   1  2.855312  0.000000  5.710624
104   1  2.855312  0.000000  8.565936
105   1  2.855312  0.000000 11.421248
106   1  2.855312  0.000000 14.276560
107   1  2.855312  0.000000 17.131872
108   1  2.855312  0.000000 19.987184
109   1  2.855312  0.000000 22.842496
110   1  2.855312  0.000000 25.697808
111   1  2.855312  2.855312  0.000000
112   1  2.855312  2.855312  2.855312
113   1  2.855312  2.855312  5.710624
114   1  2.855312  2.855312  8.565936
115   1  2.855312  2.855312 11.421248
116   1  2.855312  2.855312 14.276560
117   1  2.855312  2.855312 17.131872
118   1  2.855312  2.855312 19.987184
119   1  2.855312  2.855312 22.842496
120   1  2.855312  2.855312 25.697808
121   1  2.855312  5.710624  0.000000
122   1  2.855312  5.710624  2.855312
123   1  2.855312  5.710624  5.710624
124   1  2.855312  5.710624  8.565936
125   1  2.855312  5.710624 11.421248
126   1  2.855312  5.710624 14.276560
127   1  2.855312  5.710624 17.131872
128   1  2.855312  5.710624 19.987184
129   1  2.855312  5.710624 22.842496
130   1  2.855312  5.710624 25.697808
131   1  2.855312  8.565936  0.000000
132   1  2.855312  8.565936  2.855312
133   1  2.855312  8.565936  5.710624
134   1  2.855312  8.565936  8.565936
135   1  2.855312  8.565936 11.421248
136   1  2.855312  8.565936 14.276560
137   1  2.855312  8.565936 17.131872
138   1  2.855312  8.565936 19.987184
139   1  2.855312  8.565936 22.842496
140   1  2.855312  8.565936 25.697808
141   1  2.855312 11.421248  0.000000
142   1  2.855312 11.421248  2.855312
143   1  2.855312 11.421248  5.710624
144   1  2.855312 11.421248  8.565936
145   1  2.855312 11.421248 11.421248
146   1  2.855312 11.421248 14.276560
147   1  2.855312 11.421248 17.131872
148   1  2.855312 11.421248 19.987184
149   1  2.855312 11.421248 22.842496
150   1  2.855312 11.421248 25.697808
151   1  2.855312 14.276560  0.000000
152   1  2.855312 14.276560  2.855312
153   1  2.855312 14.276560  5.710624
154   1  2.855312 14.276560  8.565936
155   1  2.855312 14.276560 11.421248
156   1  2.855312 14.276560 14.276560
157   1  2.855312 14.276560 17.131872
158   1  2.855312 14.276560 19.987184
159   1  2.855312 14.276560 22.842496
160   1  2.855312 14.276560 25.697808
161   1  2.855312 17.131872  0.000000
162   1  2.855312 17.131872  2.855312
163   1  2.855312 17.131872  5.710624
164   1  2.855312 17.131872  8.565936
165   1  2.855312 17.131872 11.421248
166   1  2.855312 17.131872 14.276560
167   1  2.855312 17.131872 17.131872
168   1  2.855312 17.131872 19.987184
169   1  2.855312 17.131872 22.842496
170   1  2.855312 17.131872 25.697808
171   1  2.855312 19.987184  0.000000
172   1  2.855312 19.987184  2.855312
173   1  2.855312 19.987184  5.710624
174   1  2.855312 19.987184  8.565936
175   1  2.855312 19.987184 11.421248
176   1  2.855312 19.987184 14.276560
177   1  2.855312 19.987184 17.131872
178   1  2.855312 19.987184 19.987184
179   1  2.855312 19.987184 22.842496
180   1  2.855312 19.987184 25.697808
181   1  2.855312 22.842496  0.000000
182   1  2.855312 22.842496  2.855312
183   1  2.855312 22.842496  5.710624
184   1  2.855312 22.842496  8.565936
185   1  2.855312 22.842496 11.421248
186   1  2.855312 22.842496 14.276560
187   1  2.855312 22.842496 17.131872
188   1  2.855312 22.842496 19.987184
189   1  2.855312 22.842496 22.842496
190   1  2.855312 22.842496 25.697808
191   1  2.855312 25.697808  0.000000
192   1  2.855312 25.697808  2.855312
193   1  2.855312 25.697808  5.710624
194   1  2.855312 25.697808  8.565936
195   1  2.855312 25.697808 11.421248
196   1  2.855312 25.697808 14.276560
197   1  2.855312 25.697808 17.131872
198   1  2.855312 25.697808 19.987184
199   1  2.855312 25.697808 22.842496
200   1  2.855312 25.697808 25.697808
201   1  5.710624  0.000000  0.000000
202   1  5.710624  0.000000  2.855312
203   1  5.710624  0.000000  5.710624
204   1  5.710624  0.000000  8.565936
205   1  5.710624  0.000000 11.421248
206   1  5.710624  0.000000 14.276560
207   1  5.710624  0.000000 17.131872
208   1  5.710624  0.000000 19.987184
209   1  5.710624  0.000000 22.842496
210   1  5.710624  0.000000 25.697808
211   1  5.710624  2.855312  0.000000
212   1  5.710624  2.855312  2.855312
213   1  5.710624  2.855312  5.710624
214   1  5.710624  2.855312  8.565936
215   1  5.710624  2.855312 11.421248
216   1  5.710624  2.855312 14.276560
217   1  5.710624  2.855312 17.131872
218   1  5.710624  2.855312 19.987184
219   1  5.710624  2.855312 22.842496
220   1  5.710624  2.855312 25.697808
221   1  5.710624  5.710624  0.000000
222   1  5.710624  5.710624  2.855312
223   1  5.710624  5.710624  5.710624
224   1  5.710624  5.710624  8.565936
225   1  5.710624  5.710624 11.421248
226   1  5.710624  5.710624 14.276560
227   1  5.710624  5.710624 17.131872
228   1  5.710624  5.710624 19.987184
229   1  5.710624  5.710624 22.842496
230   1  5.710624  5.710624 25.697808
231   1  5.710624  8.565936  0.000000
232   1  5.710624  8.565936  2.855312
233   1  5.710624  8.565936  5.710624
234   1  5.710624  8.565936  8.565936
235   1  5.710624  8.565936 11.421248
236   1  5.710624  8.565936 14.276560
237   1  5.710624  8.565936 17.131872
238   1  5.710624  8.565936 19.987184
239   1  5.710624  8.565936 22.842496
240   1  5.710624  8.565936 25.697808
241   1  5.710624 11.421248  0.000000
242   1  5.710624 11.421248  2.855312
243   1  5.710624 11.421248  5.710624
244   1  5.710624 11.421248  8.565936
245   1  5.710624 11.421248 11.421248
246   1  5.710624 11.421248 14.276560
247   1  5.710624 11.421248 17.131872
248   1  5.710624 11.421248 19.987184
249   1  5.710624 11.421248 22.842496
250   1  5.710624 11.421248 25.697808
251   1  5.710624 14.276560  0.000000
252   1  5.710624 14.276560  2.855312
253   1  5.710624 14.276560  5.710624
254   1  5.710624 14.276560  8.565936
255   1  5.710624 14.276560 11.421248
256   1  5.710624 14.276560 14.276560
257   1  5.710624 14.276560 17.131872
258   1  5.710624 14.276560 19.987184
259   1  5.710624 14.276560 22.842496
260   1  5.710624 14.276560 25.697808
261   1  5.710624 17.131872  0.000000
262   1  5.710624 17.131872  2.855312
263   1  5.710624 17.131872  5.710624
264   1  5.710624 17.131872  8.565936
265   1  5.710624 17.131872 11.421248
266   1  5.710624 17.131872 14.276560
267   1  5.710624 17.131872 17.131872
268   1  5.710624 17.131872 19.987184
269   1  5.710624 17.131872 22.842496
270   1  5.710624 17.131872 25.697808
271   1  5.710624 19.987184  0.000000
272   1  5.710624 19.987184  2.855312
273   1  5.710624 19.987184  5.710624
274   1  5.710624 19.987184  8.565936
275   1  5.710624 19.987184 11.421248
276   1  5.710624 19.987184 14.276560
277   1  5.710624 19.987184 17.131872
278   1  5.710624 19.987184 19.987184
279   1  5.710624 19.987184 22.842496
280   1  5.710624 19.987184 25.697808
281   1  5.710624 22.842496  0.000000
282   1  5.710624 22.842496  2.855312
283   1  5.710624 22.842496  5.710624
284   1  5.710624 22.842496  8.565936
285   1  5.710624 22.842496 11.421248
286   1  5.710624 22.842496 14.276560
287   1  5.710624 22.842496 17.131872
288   1  5.710624 22.842496 19.987184
289   1  5.710624 22.842496 22.842496
290   1  5.710624 22.842496 25.697808
291   1  5.710624 25.697808  0.000000
292   1  5.710624 25.697808  2.855312
293   1  5.710624 25.697808  5.710624
294   1  5.710624 25.697808  8.565936
295   1  5.710624 25.697808 11.421248
296   1  5.710624 25.697808 14.276560
297   1  5.710624 25.697808 17.131872
298   1  5.710624 25.697808 19.987184
299   1  5.710624 25.697808 22.842496
300   1  5.710624 25.697808 25.697808
301   1  8.565936  0.000000  0.000000
302   1  8.565936  0.000000  2.855312
303   1  8.565936  0.000000  5.710624
304   1  8.565936  0.000000  8.565936
305   1  8.565936  0.000000 11.421248
306   1  8.565936  0.000000 14.276560
307   1  8.565936  0.000000 17.131872
308   1  8.565936  0.000000 19.987184
309   1  8.565936  0.000000 22.842496
310   1  8.565936  0.000000 25.697808
311   1  8.565936  2.855312  0.000000
312   1  8.565936  2.855312  2.855312
313   1  8.565936  2.855312  5.710624
314   1  8.565936  2.855312  8.565936
315   1  8.565936  2.855312 11.421248
316   1  8.565936  2.855312 14.276560
317   1  8.565936  2.855312 17.131872
318   1  8.565936  2.855312 19.987184
319   1  8.565936  2.855312 22.842496
320   1  8.565936  2.855312 25.697808
321   1  8.565936  5.710624  0.000000
322   1  8.565936  5.710624  2.855312
323   1  8.565936  5.710624  5.710624
324   1  8.565936  5.710624  8.565936
325   1  8.565936  5.710624 11.421248
326   1  8.565936  5.710624 14.276560
327   1  8.565936  5.710624 17.131872
328   1  8.565936  5.710624 19.987184
329   1  8.565936  5.710624 22.842496
330   1  8.565936  5.710624 25.697808
331   1  8.565936  8.565936  0.000000
332   1  8.565936  8.565936  2.855312
333   1  8.565936  8.565936  5.710624
334   1  8.565936  8.565936  8.565936
335   1  8.565936  8.565936 11.421248
336   1  8.565936  8.565936 14.276560
337   1  8.565936  8.565936 17.131872
338   1  8.565936  8.565936 19.987184
339   1  8.565936  8.565936 22.842496
340   1  8.565936  8.565936 25.697808
341   1  8.565936 11.421248  0.000000
342   1  8.565936 11.421248  2.855312
343   1  8.565936 11.421248  5.710624
344   1  8.565936 11.421248  8.565936
345   1  8.565936 11.421248 11.421248
346   1  8.565936 11.421248 14.276560
347   1  8.565936 11.421248 17.131872
348   1  8.565936 11.421248 19.987184
349   1  8.565936 11.421248 22.842496
350   1  8.565936 11.421248 25.697808
351   1  8.565936 14.276560  0.000000
352   1  8.565936 14.276560  2.855312
353   1  8.565936 14.276560  5.710624
354   1  8.565936 14.276560  8.565936
355   1  8.565936 14.276560 11.421248
356   1  8.565936 14.276560 14.276560
357   1  8.565936 14.276560 17.131872
358   1  8.565936 14.276560 19.987184
359   1  8.565936 14.276560 22.842496
360   1  8.565936 14.276560 25.697808
361   1  8.565936 17.131872  0.000000
362   1  8.565936 17.131872  2.855312
363   1  8.565936 17.131872  5.710624
364   1  8.565936 17.131872  8.565936
365   1  8.565936 17.131872 11.421248
366   1  8.565936 17.131872 14.276560
367   1  8.565936 17.131872 17.131872
368   1  8.565936 17.131872 19.987184
369   1  8.565936 17.131872 22.842496
370   1  8.565936 17.131872 25.697808
371   1  8.565936 19.987184  0.000000
372   1  8.565936 19.987184  2.855312
373   1  8.565936 19.987184  5.710624
374   1  8.565936 19.987184  8.565936
375   1  8.565936 19.987184 11.421248
376   1  8.565936 19.987184 14.276560
377   1  8.565936 19.987184 17.131872
378   1  8.565936 19.987184 19.987184
379   1  8.565936 19.987184 22.842496
380   1  8.565936 19.987184 25.697808
381   1  8.565936 22.842496  0.000000
382   1  8.565936 22.842496  2.855312
383   1  8.565936 22.842496  5.710624
384   1  8.565936 22.842496  8.565936
385   1  8.565936 22.842496 11.421248
386   1  8.565936 22.842496 14.276560
387   1  8.565936 22.842496 17.131872
388   1  8.565936 22.842496 19.987184
389   1  8.565936 22.842496 22.842496
390   1  8.565936 22.842496 25.697808
391   1  8.565936 25.697808  0.000000
392   1  8.565936 25.697808  2.855312
393   1  8.565936 25.697808  5.710624
394   1  8.565936 25.697808  8.565936
395   1  8.565936 25.697808 11.421248
396   1  8.565936 25.697808 14.276560
397   1  8.565936 25.697808 17.131872
398   1  8.565936 25.697808 19.987184
399   1  8.565936 25.697808 22.842496
400   1  8.565936 25.697808 25.697808
401   1 11.421248  0.000000  0.000000
402   1 11.421248  0.000000  2.855312
403   1 11.421248  0.000000  5.710624
404   1 11.421248  0.000000  8.565936
405   1 11.421248  0.000000 11.421248
406   1 11.421248  0.000000 14.276560
407   1 11.421248  0.000000 17.131872
408   1 11.421248  0.000000 19.987184
409   1 11.421248  0.000000 22.842496
410   1 11.421248  0.000000 25.697808
411   1 11.421248  2.855312  0.000000
412   1 11.421248  2.855312  2.855312
413   1 11.421248  2.855312  5.710624
414   1 11.421248  2.855312  8.565936
415   1 11.421248  2.855312 11.421248
416   1 11.421248  2.855312 14.276560
417   1 11.421248  2.855312 17.131872
418   1 11.421248  2.855312 19.987184
419   1 11.421248  2.855312 22.842496
420   1 11.421248  2.855312 25.697808
421   1 11.421248  5.710624  0.000000
422   1 11.421248  5.710624  2.855312
423   1 11.421248  5.710624  5.710624
424   1 11.421248  5.710624  8.565936
425   1 11.421248  5.710624 11.421248
426   1 11.421248  5.710624 14.276560
427   1 11.421248  5.710624 17.131872
428   1 11.421248  5.710624 19.987184
429   1 11.421248  5.710624 22.842496
430   1 11.421248  5.710624 25.697808
431   1 11.421248  8.565936  0.000000
432   1 11.421248  8.565936  2.855312
433   1 11.421248  8.565936  5.710624
434   1 11.421248  8.565936  8.565936
435   1 11.421248  8.565936 11.421248
436   1 11.421248  8.565936 14.276560
437   1 11.421248  8.565936 17.131872
438   1 11.421248  8.565936 19.987184
439   1 11.421248  8.565936 22.842496
440   1 11.421248  8.565936 25.697808
441   1 11.421248 11.421248  0.000000
442   1 11.421248 11.421248  2.855312
443   1 11.421248 11.421248  5.710624
444   1 11.421248 11.421248  8.565936
445   1 11.421248 11.421248 11.421248
446   1 11.421248 11.421248 14.276560
447   1 11.421248 11.421248 17.131872
448   1 11.421248 11.421248 19.987184
449   1 11.421248 11.421248 22.842496
450   1 11.421248 11.421248 25.697808
451   1 11.421248 14.276560  0.000000
452   1 11.421248 14.276560  2.855312
453   1 11.421248 14.276560  5.710624
454   1 11.421248 14.276560  8.565936
455   1 11.421248 14.276560 11.421248
456   1 11.421248 14.276560 14.276560
457   1 11.421248 14.276560 17.131872
458   1 11.421248 14.276560 19.987184
459   1 11.421248 14.276560 22.842496
460   1 11.421248 14.276560 25.697808
461   1 11.421248 17.131872  0.000000
462   1 11.421248 17.131872  2.855312
463   1 11.421248 17.131872  5.710624
464   1 11.421248 17.131872  8.565936
465   1 11.421248 17.131872 11.421248
466   1 11.421248 17.131872 14.276560
467   1 11.421248 17.131872 17.131872
468   1 11.421248 17.131872 19.987184
469   1 11.421248 17.131872 22.842496
470   1 11.421248 17.131872 25.697808
471   1 11.421248 19.987184  0.000000
472   1 11.421248 19.987184  2.855312
473   1 11.421248 19.987184  5.710624
474   1 11.421248 19.987184  8.565936
475   1 11.421248 19.987184 11.421248
476   1 11.421248 19.987184 14.276560
477   1 11.421248 19.987184 17.131872
478   1 11.421248 19.987184 19.987184
479   1 11.421248 19.987184 22.842496
480   1 11.421248 19.987184 25.697808
481   1 11.421248 22.842496  0.000000
482   1 11.421248 22.842496  2.855312
483   1 11.421248 22.842496  5.710624
484   1 11.421248 22.842496  8.565936
485   1 11.421248 22.842496 11.421248
486   1 11.421248 22.842496 14.276560
487   1 11.421248 22.842496 17.131872
488   1 11.421248 22.842496 19.987184
489   1 11.421248 22.842496 22.842496
490   1 11.421248 22.842496 25.697808
491   1 11.421248 25.697808  0.000000
492   1 11.421248 25.697808  2.855312
493   1 11.421248 25.697808  5.710624
494   1 11.421248 25.697808  8.565936
495   1 11.421248 25.697808 11.421248
496   1 11.421248 25.697808 14.276560
497   1 11.421248 25.697808 17.131872
498   1 11.421248 25.697808 19.987184
499   1 11.421248 25.697808 22.842496
500   1 11.421248 25.697808 25.697808
501   1 14.276560  0.000000  0.000000
502   1 14.276560  0.000000  2.855312
503   1 14.276560  0.000000  5.710624
504   1 14.276560  0.000000  8.565936
505   1 14.276560  0.000000 11.421248
506   1 14.276560  0.000000 14.276560
507   1 14.276560  0.000000 17.131872
508   1 14.276560  0.000000 19.987184
509   1 14.276560  0.000000 22.842496
510   1 14.276560  0.000000 25.697808
511   1 14.276560  2.855312  0.000000
512   1 14.276560  2.855312  2.855312
513   1 14.276560  2.855312  5.710624
514   1 14.276560  2.855312  8.565936
515   1 14.276560  2.855312 11.421248
516   1 14.276560  2.855312 14.276560
517   1 14.276560  2.855312 17.131872
518   1 14.276560  2.855312 19.987184
519   1 14.276560  2.855312 22.842496
520   1 14.276560  2.855312 25.697808
521   1 14.276560  5.710624  0.000000
522   1 14.276560  5.710624  2.855312
523   1 14.276560  5.710624  5.710624
524   1 14.276560  5.710624  8.565936
525   1 14.276560  5.710624 11.421248
526   1 14.276560  5.710624 14.276560
527   1 14.276560  5.710624 17.131872
528   1 14.276560  5.710624 19.987184
529   1 14.276560  5.710624 22.842496
530   1 14.276560  5.710624 25.697808
531   1 14.276560  8.565936  0.000000
532   1 14.276560  8.565936  2.855312
533   1 14.276560  8.565936  5.710624
534   1 14.276560  8.565936  8.565936
535   1 14.276560  8.565936 11.421248
536   1 14.276560  8.565936 14.276560
537   1 14.276560  8.565936 17.131872
538   1 14.276560  8.565936 19.987184
539   1 14.276560  8.565936 22.842496
540   1 14.276560  8.565936 25.697808
541   1 14.276560 11.421248  0.000000
542   1 14.276560 11.421248  2.855312
543   1 14.276560 11.421248  5.710624
544   1 14.276560 11.421248  8.565936
545   1 14.276560 11.421248 11.421248
546   1 14.276560 11.421248 14.276560
547   1 14.276560 11.421248 17.131872
548   1 14.276560 11.421248 19.987184
549   1 14.276560 11.421248 22.842496
550   1 14.276560 11.421248 25.697808
551   1 14.276560 14.276560  0.000000
552   1 14.276560 14.276560  2.855312
553   1 14.276560 14.276560  5.710624
554   1 14.276560 14.276560  8.565936
555   1 14.276560 14.276560 11.421248
556   1 14.276560 14.276560 14.276560
557   1 14.276560 14.276560 17.131872
558   1 14.276560 14.276560 19.987184
559   1 14.276560 14.276560 22.842496
560   1 14.276560 14.276560 25.697808
561   1 14.276560 17.131872  0.000000
562   1 14.276560 17.131872  2.855312
563   1 14.276560 17.131872  5.710624
564   1 14.276560 17.131872  8.565936
565   1 14.276560 17.131872 11.421248
566   1 14.276560 17.131872 14.276560
567   1 14.276560 17.131872 17.131872
568   1 14.276560 17.131872 19.987184
569   1 14.276560 17.131872 22.842496
570   1 14.276560 17.131872 25.697808
571   1 14.276560 19.987184  0.000000
572   1 14.276560 19.987184  2.855312
573   1 14.276560 19.987184  5.710624
574   1 14.276560 19.987184  8.565936
575   1 14.276560 19.987184 11.421248
576   1 14.276560 19.987184 14.276560
577   1 14.276560 19.987184 17.131872
578   1 14.276560 19.987184 19.987184
579   1 14.276560 19.987184 22.842496
580   1 14.276560 19.987184 25.697808
581   1 14.276560 22.842496  0.000000
582   1 14.276560 22.842496  2.855312
583   1 14.276560 22.842496  5.710624
584   1 14.276560 22.842496  8.565936
585   1 14.276560 22.842496 11.421248
586   1 14.276560 22.842496 14.276560
587   1 14.276560 22.842496 17.131872
588   1 14.276560 22.842496 19.987184
589   1 14.276560 22.842496 22.842496
590   1 14.276560 22.842496 25.697808
591   1 14.276560 25.697808  0.000000
592   1 14.276560 25.697808  2.855312
593   1 14.276560 25.697808  5.710624
594   1 14.276560 25.697808  8.565936
595   1 14.276560 25.697808 11.421248
596   1 14.276560 25.697808 14.276560
597   1 14.276560 25.697808 17.131872
598   1 14.276560 25.697808 19.987184
599   1 14.276560 25.697808 22.842496
600   1 14.276560 25.697808 25.697808
601   1 17.131872  0.000000  0.000000
602   1 17.131872  0.000000  2.855312
603   1 17.131872  0.000000  5.710624
604   1 17.131872  0.000000  8.565936
605   1 17.131872  0.000000 11.421248
606   1 17.131872  0.000000 14.276560
607   1 17.131872  0.000000 17.131872
608   1 17.131872  0.000000 19.987184
609   1 17.131872  0.000000 22.842496
610   1 17.131872  0.000000 25.697808
611   1 17.131872  2.855312  0.000000
612   1 17.131872  2.855312  2.855312
613   1 17.131872  2.855312  5.710624
614   1 17.131872  2.855312  8.565936
615   1 17.131872  2.855312 11.421248
616   1 17.131872  2.855312 14.276560
617   1 17.131872  2.855312 17.131872
618   1 17.131872  2.855312 19.987184
619   1 17.131872  2.855312 22.842496
620   1 17.131872  2.855312 25.697808
621   1 17.131872  5.710624  0.000000
622   1 17.131872  5.710624  2.855312
623   1 17.131872  5.710624  5.710624
624   1 17.131872  5.710624  8.565936
625   1 17.131872  5.710624 11.421248
626   1 17.131872  5.710624 14.276560
627   1 17.131872  5.710624 17.131872
628   1 17.131872  5.710624 19.987184
629   1 17.131872  5.710624 22.842496
630   1 17.131872  5.710624 25.697808
631   1 17.131872  8.565936  0.000000
632   1 17.131872  8.565936  2.855312
633   1 17.131872  8.565936  5.710624
634   1 17.131872  8.565936  8.565936
635   1 17.131872  8.565936 11.421248
636   1 17.131872  8.565936 14.276560
637   1 17.131872  8.565936 17.131872
638   1 17.131872  8.565936 19.987184
639   1 17.131872  8.565936 22.842496
640   1 17.131872  8.565936 25.697808
641   1 17.131872 11.421248  0.000000
642   1 17.131872 11.421248  2.855312
643   1 17.131872 11.421248  5.710624
644   1 17.131872 11.421248  8.565936
645   1 17.131872 11.421248 11.421248
646   1 17.131872 11.421248 14.276560
647   1 17.131872 11.421248 17.131872
648   1 17.131872 11.421248 19.987184
649   1 17.131872 11.421248 22.842496
650   1 17.131872 11.421248 25.697808
651   1 17.131872 14.276560  0.000000
652   1 17.131872 14.276560  2.855312
653   1 17.131872 14.276560  5.710624
654   1 17.131872 14.276560  8.565936
655   1 17.131872 14.276560 11.421248
656   1 17.131872 14.276560 14.276560
657   1 17.131872 14.276560 17.131872
658   1 17.131872 14.276560 19.987184
659   1 17.131872 14.276560 22.842496
660   1 17.131872 14.276560 25.697808
661   1 17.131872 17.131872  0.000000
662   1 17.131872 17.131872  2.855312
663   1 17.131872 17.131872  5.710624
664   1 17.131872 17.131872  8.565936
665   1 17.131872 17.131872 11.421248
666   1 17.131872 17.131872 14.276560
667   1 17.131872 17.131872 17.131872
668   1 17.131872 17.131872 19.987184
669   1 17.131872 17.131872 22.842496
670   1 17.131872 17.131872 25.697808
671   1 17.131872 19.987184  0.000000
672   1 17.131872 19.987184  2.855312
673   1 17.131872 19.987184  5.710624
674   1 17.131872 19.987184  8.565936
675   1 17.131872 19.987184 11.421248
676   1 17.131872 19.987184 14.276560
677   1 17.131872 19.987184 17.131872
678   1 17.131872 19.987184 19.987184
679   1 17.131872 19.987184 22.842496
680   1 17.131872 19.987184 25.697808
681   1 17.131872 22.842496  0.000000
682   1 17.131872 22.842496  2.855312
683   1 17.131872 22.842496  5.710624
684   1 17.131872 22.842496  8.565936
685   1 17.131872 22.842496 11.421248
686   1 17.131872 22.842496 14.276560
687   1 17.131872 22.842496 17.131872
688   1 17.131872 22.842496 19.987184
689   1 17.131872 22.842496 22.842496
690   1 17.131872 22.842496 25.697808
691   1 17.131872 25.697808  0.000000
692   1 17.131872 25.697808  2.855312
693   1 17.131872 25.697808  5.710624
694   1 17.131872 25.697808  8.565936
695   1 17.131872 25.697808 11.421248
696   1 17.131872 25.697808 14.276560
697   1 17.131872 25.697808 17.131872
698   1 17.131872 25.697808 19.987184
699   1 17.131872 25.697808 22.842496
700   1 17.131872 25.697808 25.697808
701   1 19.987184  0.000000  0.000000
702   1 19.987184  0.000000  2.855312
703   1 19.987184  0.000000  5.710624
704   1 19.987184  0.000000  8.565936
705   1 19.987184  0.000000 11.421248
706   1 19.987184  0.000000 14.276560
707   1 19.987184  0.000000 17.131872
708   1 19.987184  0.000000 19.987184
709   1 19.987184  0.000000 22.842496
710   1 19.987184  0.000000 25.697808
711   1 19.987184  2.855312  0.000000
712   1 19.987184  2.855312  2.855312
713   1 19.987184  2.855312  5.710624
714   1 19.987184  2.855312  8.565936
715   1 19.987184  2.855312 11.421248
716   1 19.987184  2.855312 14.276560
717   1 19.987184  2.855312 17.131872
718   1 19.987184  2.855312 19.987184
719   1 19.987184  2.855312 22.842496
720   1 19.987184  2.855312 25.697808
721   1 19.987184  5.710624  0.000000
722   1 19.987184  5.710624  2.855312
723   1 19.987184  5.710624  5.710624
724   1 19.987184  5.710624  8.565936
725   1 19.987184  5.710624 11.421248
726   1 19.987184  5.710624 14.276560
727   1 19.987184  5.710624 17.131872
728   1 19.987184  5.710624 19.987184
729   1 19.987184  5.710624 22.842496
730   1 19.987184  5.710624 25.697808
731   1 19.987184  8.565936  0.000000
732   1 19.987184  8.565936  2.855312
733   1 19.987184  8.565936  5.710624
734   1 19.987184  8.565936  8.565936
735   1 19.987184  8.565936 11.421248
736   1 19.987184  8.565936 14.276560
737   1 19.987184  8.565936 17.131872
738   1 19.987184  8.565936 19.987184
739   1 19.987184  8.565936 22.842496
740   1 19.987184  8.565936 25.697808
741   1 19.987184 11.421248  0.000000
742   1 19.987184 11.421248  2.855312
743   1 19.987184 11.421248  5.710624
744   1 19.987184 11.421248  8.565936
745   1 19.987184 11.421248 11.421248
746   1 19.987184 11.421248 14.276560
747   1 19.987184 11.421248 17.131872
748   1 19.987184 11.421248 19.987184
749   1 19.987184 11.421248 22.842496
750   1 19.987184 11.421248 25.697808
751   1 19.987184 14.276560  0.000000
752   1 19.987184 14.276560  2.855312
753   1 19.987184 14.276560  5.710624
754   1 19.987184 14.276560  8.565936
755   1 19.987184 14.276560 11.421248
756   1 19.987184 14.276560 14.276560
757   1 19.987184 14.276560 17.131872
758   1 19.987184 14.276560 19.987184
759   1 19.987184 14.276560 22.842496
760   1 19.987184 14.276560 25.697808
761   1 19.987184 17.131872  0.000000
762   1 19.987184 17.131872  2.855312
763   1 19.987184 17.131872  5.710624
764   1 19.987184 17.131872  8.565936
765   1 19.987184 17.131872 11.421248
766   1 19.987184 17.131872 14.276560
767   1 19.987184 17.131872 17.131872
768   1 19.987184 17.131872 19.987184
769   1 19.987184 17.131872 22.842496
770   1 19.987184 17.131872 25.697808
771   1 19.987184 19.987184  0.000000
772   1 19.987184 19.987184  2.855312
773   1 19.987184 19.987184  5.710624
774   1 19.987184 19.987184  8.565936
775   1 19.987184 19.987184 11.421248
776   1 19.987184 19.987184 14.276560
777   1 19.987184 19.987184 17.131872
778   1 19.987184 19.987184 19.987184
779   1 19.987184 19.987184 22.842496
780   1 19.987184 19.987184 25.697808
781   1 19.987184 22.842496  0.000000
782   1 19.987184 22.842496  2.855312
783   1 19.987184 22.842496  5.710624