Generated by pymatgen.io.lammps.data.LammpsData

1999  atoms

   2  atom types

0.000000 28.553120  xlo xhi
0.000000 28.553120  ylo yhi
0.000000 28.553120  zlo zhi
0.000000 0.000000 0.000000  xy xz yz

Masses

1  55.847000
2  30.973762

Atoms

1     0  1 28.511980 28.511980 28.511980
2     0  1  0.001546  0.001546  2.855203
3     0  1  0.000076  0.000076  5.710840
4     0  1 28.553100 28.553100  8.566007
5     0  1 28.553116 28.553116 11.421270
6     0  1 28.553116 28.553116 14.276538
7     0  1 28.553100 28.553100 17.131801
8     0  1  0.000076  0.000076 19.986968
9     0  1  0.001546  0.001546 22.842605
10    0  1 28.511980 28.511980 25.738948
11    0  1  0.001546  2.855203  0.001546
12    0  1 28.552699  2.851670  2.851670
13    0  1 28.552861  2.854553  5.709708
14    0  1 28.553048  2.855137  8.565728
15    0  1 28.553099  2.855271 11.421210
16    0  1 28.553099  2.855271 14.276598
17    0  1 28.553048  2.855137 17.132080
18    0  1 28.552861  2.854553 19.988100
19    0  1 28.552699  2.851670 22.846138
20    0  1  0.001546  2.855203 25.696262
21    0  1  0.000076  5.710840  0.000076
22    0  1 28.552861  5.709708  2.854553
23    0  1 28.552920  5.709381  5.709381
24    0  1 28.553037  5.710181  8.565432
25    0  1 28.553086  5.710483 11.421126
26    0  1 28.553086  5.710483 14.276682
27    0  1 28.553037  5.710181 17.132376
28    0  1 28.552920  5.709381 19.988427
29    0  1 28.552861  5.709708 22.843255
30    0  1  0.000076  5.710840 25.697732
31    0  1 28.553100  8.566007 28.553100
32    0  1 28.553048  8.565728  2.855137
33    0  1 28.553037  8.565432  5.710181
34    0  1 28.553056  8.565481  8.565481
35    0  1 28.553081  8.565721 11.421095
36    0  1 28.553081  8.565721 14.276713
37    0  1 28.553056  8.565481 17.132327
38    0  1 28.553037  8.565432 19.987627
39    0  1 28.553048  8.565728 22.842671
40    0  1 28.553100  8.566007 25.697828
41    0  1 28.553116 11.421270 28.553116
42    0  1 28.553099 11.421210  2.855271
43    0  1 28.553086 11.421126  5.710483
44    0  1 28.553081 11.421095  8.565721
45    0  1 28.553083 11.421136 11.421136
46    0  1 28.553083 11.421136 14.276672
47    0  1 28.553081 11.421095 17.132087
48    0  1 28.553086 11.421126 19.987325
49    0  1 28.553099 11.421210 22.842537
50    0  1 28.553116 11.421270 25.697812
51    0  1 28.553116 14.276538 28.553116
52    0  1 28.553099 14.276598  2.855271
53    0  1 28.553086 14.276682  5.710483
54    0  1 28.553081 14.276713  8.565721
55    0  1 28.553083 14.276672 11.421136
56    0  1 28.553083 14.276672 14.276672
57    0  1 28.553081 14.276713 17.132087
58    0  1 28.553086 14.276682 19.987325
59    0  1 28.553099 14.276598 22.842537
60    0  1 28.553116 14.276538 25.697812
61    0  1 28.553100 17.131801 28.553100
62    0  1 28.553048 17.132080  2.855137
63    0  1 28.553037 17.132376  5.710181
64    0  1 28.553056 17.132327  8.565481
65    0  1 28.553081 17.132087 11.421095
66    0  1 28.553081 17.132087 14.276713
67    0  1 28.553056 17.132327 17.132327
68    0  1 28.553037 17.132376 19.987627
69    0  1 28.553048 17.132080 22.842671
70    0  1 28.553100 17.131801 25.697828
71    0  1  0.000076 19.986968  0.000076
72    0  1 28.552861 19.988100  2.854553
73    0  1 28.552920 19.988427  5.709381
74    0  1 28.553037 19.987627  8.565432
75    0  1 28.553086 19.987325 11.421126
76    0  1 28.553086 19.987325 14.276682
77    0  1 28.553037 19.987627 17.132376
78    0  1 28.552920 19.988427 19.988427
79    0  1 28.552861 19.988100 22.843255
80    0  1  0.000076 19.986968 25.697732
81    0  1  0.001546 22.842605  0.001546
82    0  1 28.552699 22.846138  2.851670
83    0  1 28.552861 22.843255  5.709708
84    0  1 28.553048 22.842671  8.565728
85    0  1 28.553099 22.842537 11.421210
86    0  1 28.553099 22.842537 14.276598
87    0  1 28.553048 22.842671 17.132080
88    0  1 28.552861 22.843255 19.988100
89    0  1 28.552699 22.846138 22.846138
90    0  1  0.001546 22.842605 25.696262
91    0  1 28.511980 25.738948 28.511980
92    0  1  0.001546 25.696262  2.855203
93    0  1  0.000076 25.697732  5.710840
94    0  1 28.553100 25.697828  8.566007
95    0  1 28.553116 25.697812 11.421270
96    0  1 28.553116 25.697812 14.276538
97    0  1 28.553100 25.697828 17.131801
98    0  1  0.000076 25.697732 19.986968
99    0  1  0.001546 25.696262 22.842605
100   0  1 28.511980 25.738948 25.738948
101   0  1  2.855203  0.001546  0.001546
102   0  1  2.851670 28.552699  2.851670
103   0  1  2.854553 28.552861  5.709708
104   0  1  2.855137 28.553048  8.565728
105   0  1  2.855271 28.553099 11.421210
106   0  1  2.855271 28.553099 14.276598
107   0  1  2.855137 28.553048 17.132080
108   0  1  2.854553 28.552861 19.988100
109   0  1  2.851670 28.552699 22.846138
110   0  1  2.855203  0.001546 25.696262
111   0  1  2.851670  2.851670 28.552699
112   0  1  2.848824  2.848824  2.848824
113   0  1  2.854304  2.854304  5.709370
114   0  1  2.855063  2.855063  8.565606
115   0  1  2.855233  2.855233 11.421175
116   0  1  2.855233  2.855233 14.276633
117   0  1  2.855063  2.855063 17.132202
118   0  1  2.854304  2.854304 19.988438
119   0  1  2.848824  2.848824 22.848984
120   0  1  2.851670  2.851670 25.698229
121   0  1  2.854553  5.709708 28.552861
122   0  1  2.854304  5.709370  2.854304
123   0  1  2.854666  5.709346  5.709346
124   0  1  2.855034  5.710143  8.565394
125   0  1  2.855197  5.710451 11.421112
126   0  1  2.855197  5.710451 14.276696
127   0  1  2.855034  5.710143 17.132414
128   0  1  2.854666  5.709346 19.988462
129   0  1  2.854304  5.709370 22.843504
130   0  1  2.854553  5.709708 25.698067
131   0  1  2.855137  8.565728 28.553048
132   0  1  2.855063  8.565606  2.855063
133   0  1  2.855034  8.565394  5.710143
134   0  1  2.855111  8.565476  8.565476
135   0  1  2.855191  8.565711 11.421094
136   0  1  2.855191  8.565711 14.276714
137   0  1  2.855111  8.565476 17.132332
138   0  1  2.855034  8.565394 19.987665
139   0  1  2.855063  8.565606 22.842745
140   0  1  2.855137  8.565728 25.697880
141   0  1  2.855271 11.421210 28.553099
142   0  1  2.855233 11.421175  2.855233
143   0  1  2.855197 11.421112  5.710451
144   0  1  2.855191 11.421094  8.565711
145   0  1  2.855201 11.421136 11.421136
146   0  1  2.855201 11.421136 14.276672
147   0  1  2.855191 11.421094 17.132097
148   0  1  2.855197 11.421112 19.987357
149   0  1  2.855233 11.421175 22.842575
150   0  1  2.855271 11.421210 25.697829
151   0  1  2.855271 14.276598 28.553099
152   0  1  2.855233 14.276633  2.855233
153   0  1  2.855197 14.276696  5.710451
154   0  1  2.855191 14.276714  8.565711
155   0  1  2.855201 14.276672 11.421136
156   0  1  2.855201 14.276672 14.276672
157   0  1  2.855191 14.276714 17.132097
158   0  1  2.855197 14.276696 19.987357
159   0  1  2.855233 14.276633 22.842575
160   0  1  2.855271 14.276598 25.697829
161   0  1  2.855137 17.132080 28.553048
162   0  1  2.855063 17.132202  2.855063
163   0  1  2.855034 17.132414  5.710143
164   0  1  2.855111 17.132332  8.565476
165   0  1  2.855191 17.132097 11.421094
166   0  1  2.855191 17.132097 14.276714
167   0  1  2.855111 17.132332 17.132332
168   0  1  2.855034 17.132414 19.987665
169   0  1  2.855063 17.132202 22.842745
170   0  1  2.855137 17.132080 25.697880
171   0  1  2.854553 19.988100 28.552861
172   0  1  2.854304 19.988438  2.854304
173   0  1  2.854666 19.988462  5.709346
174   0  1  2.855034 19.987665  8.565394
175   0  1  2.855197 19.987357 11.421112
176   0  1  2.855197 19.987357 14.276696
177   0  1  2.855034 19.987665 17.132414
178   0  1  2.854666 19.988462 19.988462
179   0  1  2.854304 19.988438 22.843504
180   0  1  2.854553 19.988100 25.698067
181   0  1  2.851670 22.846138 28.552699
182   0  1  2.848824 22.848984  2.848824
183   0  1  2.854304 22.843504  5.709370
184   0  1  2.855063 22.842745  8.565606
185   0  1  2.855233 22.842575 11.421175
186   0  1  2.855233 22.842575 14.276633
187   0  1  2.855063 22.842745 17.132202
188   0  1  2.854304 22.843504 19.988438
189   0  1  2.848824 22.848984 22.848984
190   0  1  2.851670 22.846138 25.698229
191   0  1  2.855203 25.696262  0.001546
192   0  1  2.851670 25.698229  2.851670
193   0  1  2.854553 25.698067  5.709708
194   0  1  2.855137 25.697880  8.565728
195   0  1  2.855271 25.697829 11.421210
196   0  1  2.855271 25.697829 14.276598
197   0  1  2.855137 25.697880 17.132080
198   0  1  2.854553 25.698067 19.988100
199   0  1  2.851670 25.698229 22.846138
200   0  1  2.855203 25.696262 25.696262
201   0  1  5.710840  0.000076  0.000076
202   0  1  5.709708 28.552861  2.854553
203   0  1  5.709381 28.552920  5.709381
204   0  1  5.710181 28.553037  8.565432
205   0  1  5.710483 28.553086 11.421126
206   0  1  5.710483 28.553086 14.276682
207   0  1  5.710181 28.553037 17.132376
208   0  1  5.709381 28.552920 19.988427
209   0  1  5.709708 28.552861 22.843255
210   0  1  5.710840  0.000076 25.697732
211   0  1  5.709708  2.854553 28.552861
212   0  1  5.709370  2.854304  2.854304
213   0  1  5.709346  2.854666  5.709346
214   0  1  5.710143  2.855034  8.565394
215   0  1  5.710451  2.855197 11.421112
216   0  1  5.710451  2.855197 14.276696
217   0  1  5.710143  2.855034 17.132414
218   0  1  5.709346  2.854666 19.988462
219   0  1  5.709370  2.854304 22.843504
220   0  1  5.709708  2.854553 25.698067
221   0  1  5.709381  5.709381 28.552920
222   0  1  5.709346  5.709346  2.854666
223   0  1  5.709186  5.709186  5.709186
224   0  1  5.710105  5.710105  8.565334
225   0  1  5.710416  5.710416 11.421090
226   0  1  5.710416  5.710416 14.276718
227   0  1  5.710105  5.710105 17.132474
228   0  1  5.709186  5.709186 19.988622
229   0  1  5.709346  5.709346 22.843142
230   0  1  5.709381  5.709381 25.698008
231   0  1  5.710181  8.565432 28.553037
232   0  1  5.710143  8.565394  2.855034
233   0  1  5.710105  8.565334  5.710105
234   0  1  5.710281  8.565480  8.565480
235   0  1  5.710424  8.565700 11.421094
236   0  1  5.710424  8.565700 14.276714
237   0  1  5.710281  8.565480 17.132328
238   0  1  5.710105  8.565334 19.987703
239   0  1  5.710143  8.565394 22.842774
240   0  1  5.710181  8.565432 25.697891
241   0  1  5.710483 11.421126 28.553086
242   0  1  5.710451 11.421112  2.855197
243   0  1  5.710416 11.421090  5.710416
244   0  1  5.710424 11.421094  8.565700
245   0  1  5.710453 11.421137 11.421137
246   0  1  5.710453 11.421137 14.276671
247   0  1  5.710424 11.421094 17.132108
248   0  1  5.710416 11.421090 19.987392
249   0  1  5.710451 11.421112 22.842611
250   0  1  5.710483 11.421126 25.697842
251   0  1  5.710483 14.276682 28.553086
252   0  1  5.710451 14.276696  2.855197
253   0  1  5.710416 14.276718  5.710416
254   0  1  5.710424 14.276714  8.565700
255   0  1  5.710453 14.276671 11.421137
256   0  1  5.710453 14.276671 14.276671
257   0  1  5.710424 14.276714 17.132108
258   0  1  5.710416 14.276718 19.987392
259   0  1  5.710451 14.276696 22.842611
260   0  1  5.710483 14.276682 25.697842
261   0  1  5.710181 17.132376 28.553037
262   0  1  5.710143 17.132414  2.855034
263   0  1  5.710105 17.132474  5.710105
264   0  1  5.710281 17.132328  8.565480
265   0  1  5.710424 17.132108 11.421094
266   0  1  5.710424 17.132108 14.276714
267   0  1  5.710281 17.132328 17.132328
268   0  1  5.710105 17.132474 19.987703
269   0  1  5.710143 17.132414 22.842774
270   0  1  5.710181 17.132376 25.697891
271   0  1  5.709381 19.988427 28.552920
272   0  1  5.709346 19.988462  2.854666
273   0  1  5.709186 19.988622  5.709186
274   0  1  5.710105 19.987703  8.565334
275   0  1  5.710416 19.987392 11.421090
276   0  1  5.710416 19.987392 14.276718
277   0  1  5.710105 19.987703 17.132474
278   0  1  5.709186 19.988622 19.988622
279   0  1  5.709346 19.988462 22.843142
280   0  1  5.709381 19.988427 25.698008
281   0  1  5.709708 22.843255 28.552861
282   0  1  5.709370 22.843504  2.854304
283   0  1  5.709346 22.843142  5.709346
284   0  1  5.710143 22.842774  8.565394
285   0  1  5.710451 22.842611 11.421112
286   0  1  5.710451 22.842611 14.276696
287   0  1  5.710143 22.842774 17.132414
288   0  1  5.709346 22.843142 19.988462
289   0  1  5.709370 22.843504 22.843504
290   0  1  5.709708 22.843255 25.698067
291   0  1  5.710840 25.697732  0.000076
292   0  1  5.709708 25.698067  2.854553
293   0  1  5.709381 25.698008  5.709381
294   0  1  5.710181 25.697891  8.565432
295   0  1  5.710483 25.697842 11.421126
296   0  1  5.710483 25.697842 14.276682
297   0  1  5.710181 25.697891 17.132376
298   0  1  5.709381 25.698008 19.988427
299   0  1  5.709708 25.698067 22.843255
300   0  1  5.710840 25.697732 25.697732
301   0  1  8.566007 28.553100 28.553100
302   0  1  8.565728 28.553048  2.855137
303   0  1  8.565432 28.553037  5.710181
304   0  1  8.565481 28.553056  8.565481
305   0  1  8.565721 28.553081 11.421095
306   0  1  8.565721 28.553081 14.276713
307   0  1  8.565481 28.553056 17.132327
308   0  1  8.565432 28.553037 19.987627
309   0  1  8.565728 28.553048 22.842671
310   0  1  8.566007 28.553100 25.697828
311   0  1  8.565728  2.855137 28.553048
312   0  1  8.565606  2.855063  2.855063
313   0  1  8.565394  2.855034  5.710143
314   0  1  8.565476  2.855111  8.565476
315   0  1  8.565711  2.855191 11.421094
316   0  1  8.565711  2.855191 14.276714
317   0  1  8.565476  2.855111 17.132332
318   0  1  8.565394  2.855034 19.987665
319   0  1  8.565606  2.855063 22.842745
320   0  1  8.565728  2.855137 25.697880
321   0  1  8.565432  5.710181 28.553037
322   0  1  8.565394  5.710143  2.855034
323   0  1  8.565334  5.710105  5.710105
324   0  1  8.565480  5.710281  8.565480
325   0  1  8.565700  5.710424 11.421094
326   0  1  8.565700  5.710424 14.276714
327   0  1  8.565480  5.710281 17.132328
328   0  1  8.565334  5.710105 19.987703
329   0  1  8.565394  5.710143 22.842774
330   0  1  8.565432  5.710181 25.697891
331   0  1  8.565481  8.565481 28.553056
332   0  1  8.565476  8.565476  2.855111
333   0  1  8.565480  8.565480  5.710281
334   0  1  8.565534  8.565534  8.565534
335   0  1  8.565708  8.565708 11.421105
336   0  1  8.565708  8.565708 14.276703
337   0  1  8.565534  8.565534 17.132274
338   0  1  8.565480  8.565480 19.987527
339   0  1  8.565476  8.565476 22.842697
340   0  1  8.565481  8.565481 25.697872
341   0  1  8.565721 11.421095 28.553081
342   0  1  8.565711 11.421094  2.855191
343   0  1  8.565700 11.421094  5.710424
344   0  1  8.565708 11.421105  8.565708
345   0  1  8.565754 11.421144 11.421144
346   0  1  8.565754 11.421144 14.276664
347   0  1  8.565708 11.421105 17.132100
348   0  1  8.565700 11.421094 19.987384
349   0  1  8.565711 11.421094 22.842617
350   0  1  8.565721 11.421095 25.697847
351   0  1  8.565721 14.276713 28.553081
352   0  1  8.565711 14.276714  2.855191
353   0  1  8.565700 14.276714  5.710424
354   0  1  8.565708 14.276703  8.565708
355   0  1  8.565754 14.276664 11.421144
356   0  1  8.565754 14.276664 14.276664
357   0  1  8.565708 14.276703 17.132100
358   0  1  8.565700 14.276714 19.987384
359   0  1  8.565711 14.276714 22.842617
360   0  1  8.565721 14.276713 25.697847
361   0  1  8.565481 17.132327 28.553056
362   0  1  8.565476 17.132332  2.855111
363   0  1  8.565480 17.132328  5.710281
364   0  1  8.565534 17.132274  8.565534
365   0  1  8.565708 17.132100 11.421105
366   0  1  8.565708 17.132100 14.276703
367   0  1  8.565534 17.132274 17.132274
368   0  1  8.565480 17.132328 19.987527
369   0  1  8.565476 17.132332 22.842697
370   0  1  8.565481 17.132327 25.697872
371   0  1  8.565432 19.987627 28.553037
372   0  1  8.565394 19.987665  2.855034
373   0  1  8.565334 19.987703  5.710105
374   0  1  8.565480 19.987527  8.565480
375   0  1  8.565700 19.987384 11.421094
376   0  1  8.565700 19.987384 14.276714
377   0  1  8.565480 19.987527 17.132328
378   0  1  8.565334 19.987703 19.987703
379   0  1  8.565394 19.987665 22.842774
380   0  1  8.565432 19.987627 25.697891
381   0  1  8.565728 22.842671 28.553048
382   0  1  8.565606 22.842745  2.855063
383   0  1  8.565394 22.842774  5.710143
384   0  1  8.565476 22.842697  8.565476
385   0  1  8.565711 22.842617 11.421094
386   0  1  8.565711 22.842617 14.276714
387   0  1  8.565476 22.842697 17.132332
388   0  1  8.565394 22.842774 19.987665
389   0  1  8.565606 22.842745 22.842745
390   0  1  8.565728 22.842671 25.697880
391   0  1  8.566007 25.697828 28.553100
392   0  1  8.565728 25.697880  2.855137
393   0  1  8.565432 25.697891  5.710181
394   0  1  8.565481 25.697872  8.565481
395   0  1  8.565721 25.697847 11.421095
396   0  1  8.565721 25.697847 14.276713
397   0  1  8.565481 25.697872 17.132327
398   0  1  8.565432 25.697891 19.987627
399   0  1  8.565728 25.697880 22.842671
400   0  1  8.566007 25.697828 25.697828
401   0  1 11.421270 28.553116 28.553116
402   0  1 11.421210 28.553099  2.855271
403   0  1 11.421126 28.553086  5.710483
404   0  1 11.421095 28.553081  8.565721
405   0  1 11.421136 28.553083 11.421136
406   0  1 11.421136 28.553083 14.276672
407   0  1 11.421095 28.553081 17.132087
408   0  1 11.421126 28.553086 19.987325
409   0  1 11.421210 28.553099 22.842537
410   0  1 11.421270 28.553116 25.697812
411   0  1 11.421210  2.855271 28.553099
412   0  1 11.421175  2.855233  2.855233
413   0  1 11.421112  2.855197  5.710451
414   0  1 11.421094  2.855191  8.565711
415   0  1 11.421136  2.855201 11.421136
416   0  1 11.421136  2.855201 14.276672
417   0  1 11.421094  2.855191 17.132097
418   0  1 11.421112  2.855197 19.987357
419   0  1 11.421175  2.855233 22.842575
420   0  1 11.421210  2.855271 25.697829
421   0  1 11.421126  5.710483 28.553086
422   0  1 11.421112  5.710451  2.855197
423   0  1 11.421090  5.710416  5.710416
424   0  1 11.421094  5.710424  8.565700
425   0  1 11.421137  5.710453 11.421137
426   0  1 11.421137  5.710453 14.276671
427   0  1 11.421094  5.710424 17.132108
428   0  1 11.421090  5.710416 19.987392
429   0  1 11.421112  5.710451 22.842611
430   0  1 11.421126  5.710483 25.697842
431   0  1 11.421095  8.565721 28.553081
432   0  1 11.421094  8.565711  2.855191
433   0  1 11.421094  8.565700  5.710424
434   0  1 11.421105  8.565708  8.565708
435   0  1 11.421144  8.565754 11.421144
436   0  1 11.421144  8.565754 14.276664
437   0  1 11.421105  8.565708 17.132100
438   0  1 11.421094  8.565700 19.987384
439   0  1 11.421094  8.565711 22.842617
440   0  1 11.421095  8.565721 25.697847
441   0  1 11.421136 11.421136 28.553083
442   0  1 11.421136 11.421136  2.855201
443   0  1 11.421137 11.421137  5.710453
444   0  1 11.421144 11.421144  8.565754
445   0  1 11.421157 11.421157 11.421157
446   0  1 11.421157 11.421157 14.276651
447   0  1 11.421144 11.421144 17.132054
448   0  1 11.421137 11.421137 19.987355
449   0  1 11.421136 11.421136 22.842607
450   0  1 11.421136 11.421136 25.697845
451   0  1 11.421136 14.276672 28.553083
452   0  1 11.421136 14.276672  2.855201
453   0  1 11.421137 14.276671  5.710453
454   0  1 11.421144 14.276664  8.565754
455   0  1 11.421157 14.276651 11.421157
456   0  1 11.421157 14.276651 14.276651
457   0  1 11.421144 14.276664 17.132054
458   0  1 11.421137 14.276671 19.987355
459   0  1 11.421136 14.276672 22.842607
460   0  1 11.421136 14.276672 25.697845
461   0  1 11.421095 17.132087 28.553081
462   0  1 11.421094 17.132097  2.855191
463   0  1 11.421094 17.132108  5.710424
464   0  1 11.421105 17.132100  8.565708
465   0  1 11.421144 17.132054 11.421144
466   0  1 11.421144 17.132054 14.276664
467   0  1 11.421105 17.132100 17.132100
468   0  1 11.421094 17.132108 19.987384
469   0  1 11.421094 17.132097 22.842617
470   0  1 11.421095 17.132087 25.697847
471   0  1 11.421126 19.987325 28.553086
472   0  1 11.421112 19.987357  2.855197
473   0  1 11.421090 19.987392  5.710416
474   0  1 11.421094 19.987384  8.565700
475   0  1 11.421137 19.987355 11.421137
476   0  1 11.421137 19.987355 14.276671
477   0  1 11.421094 19.987384 17.132108
478   0  1 11.421090 19.987392 19.987392
479   0  1 11.421112 19.987357 22.842611
480   0  1 11.421126 19.987325 25.697842
481   0  1 11.421210 22.842537 28.553099
482   0  1 11.421175 22.842575  2.855233
483   0  1 11.421112 22.842611  5.710451
484   0  1 11.421094 22.842617  8.565711
485   0  1 11.421136 22.842607 11.421136
486   0  1 11.421136 22.842607 14.276672
487   0  1 11.421094 22.842617 17.132097
488   0  1 11.421112 22.842611 19.987357
489   0  1 11.421175 22.842575 22.842575
490   0  1 11.421210 22.842537 25.697829
491   0  1 11.421270 25.697812 28.553116
492   0  1 11.421210 25.697829  2.855271
493   0  1 11.421126 25.697842  5.710483
494   0  1 11.421095 25.697847  8.565721
495   0  1 11.421136 25.697845 11.421136
496   0  1 11.421136 25.697845 14.276672
497   0  1 11.421095 25.697847 17.132087
498   0  1 11.421126 25.697842 19.987325
499   0  1 11.421210 25.697829 22.842537
500   0  1 11.421270 25.697812 25.697812
501   0  1 14.276538 28.553116 28.553116
502   0  1 14.276598 28.553099  2.855271
503   0  1 14.276682 28.553086  5.710483
504   0  1 14.276713 28.553081  8.565721
505   0  1 14.276672 28.553083 11.421136
506   0  1 14.276672 28.553083 14.276672
507   0  1 14.276713 28.553081 17.132087
508   0  1 14.276682 28.553086 19.987325
509   0  1 14.276598 28.553099 22.842537
510   0  1 14.276538 28.553116 25.697812
511   0  1 14.276598  2.855271 28.553099
512   0  1 14.276633  2.855233  2.855233
513   0  1 14.276696  2.855197  5.710451
514   0  1 14.276714  2.855191  8.565711
515   0  1 14.276672  2.855201 11.421136
516   0  1 14.276672  2.855201 14.276672
517   0  1 14.276714  2.855191 17.132097
518   0  1 14.276696  2.855197 19.987357
519   0  1 14.276633  2.855233 22.842575
520   0  1 14.276598  2.855271 25.697829
521   0  1 14.276682  5.710483 28.553086
522   0  1 14.276696  5.710451  2.855197
523   0  1 14.276718  5.710416  5.710416
524   0  1 14.276714  5.710424  8.565700
525   0  1 14.276671  5.710453 11.421137
526   0  1 14.276671  5.710453 14.276671
527   0  1 14.276714  5.710424 17.132108
528   0  1 14.276718  5.710416 19.987392
529   0  1 14.276696  5.710451 22.842611
530   0  1 14.276682  5.710483 25.697842
531   0  1 14.276713  8.565721 28.553081
532   0  1 14.276714  8.565711  2.855191
533   0  1 14.276714  8.565700  5.710424
534   0  1 14.276703  8.565708  8.565708
535   0  1 14.276664  8.565754 11.421144
536   0  1 14.276664  8.565754 14.276664
537   0  1 14.276703  8.565708 17.132100
538   0  1 14.276714  8.565700 19.987384
539   0  1 14.276714  8.565711 22.842617
540   0  1 14.276713  8.565721 25.697847
541   0  1 14.276672 11.421136 28.553083
542   0  1 14.276672 11.421136  2.855201
543   0  1 14.276671 11.421137  5.710453
544   0  1 14.276664 11.421144  8.565754
545   0  1 14.276651 11.421157 11.421157
546   0  1 14.276651 11.421157 14.276651
547   0  1 14.276664 11.421144 17.132054
548   0  1 14.276671 11.421137 19.987355
549   0  1 14.276672 11.421136 22.842607
550   0  1 14.276672 11.421136 25.697845
551   0  1 14.276672 14.276672 28.553083
552   0  1 14.276672 14.276672  2.855201
553   0  1 14.276671 14.276671  5.710453
554   0  1 14.276664 14.276664  8.565754
555   0  1 14.276651 14.276651 11.421157
556   0  1 14.276651 14.276651 14.276651
557   0  1 14.276664 14.276664 17.132054
558   0  1 14.276671 14.276671 19.987355
559   0  1 14.276672 14.276672 22.842607
560   0  1 14.276672 14.276672 25.697845
561   0  1 14.276713 17.132087 28.553081
562   0  1 14.276714 17.132097  2.855191
563   0  1 14.276714 17.132108  5.710424
564   0  1 14.276703 17.132100  8.565708
565   0  1 14.276664 17.132054 11.421144
566   0  1 14.276664 17.132054 14.276664
567   0  1 14.276703 17.132100 17.132100
568   0  1 14.276714 17.132108 19.987384
569   0  1 14.276714 17.132097 22.842617
570   0  1 14.276713 17.132087 25.697847
571   0  1 14.276682 19.987325 28.553086
572   0  1 14.276696 19.987357  2.855197
573   0  1 14.276718 19.987392  5.710416
574   0  1 14.276714 19.987384  8.565700
575   0  1 14.276671 19.987355 11.421137
576   0  1 14.276671 19.987355 14.276671
577   0  1 14.276714 19.987384 17.132108
578   0  1 14.276718 19.987392 19.987392
579   0  1 14.276696 19.987357 22.842611
580   0  1 14.276682 19.987325 25.697842
581   0  1 14.276598 22.842537 28.553099
582   0  1 14.276633 22.842575  2.855233
583   0  1 14.276696 22.842611  5.710451
584   0  1 14.276714 22.842617  8.565711
585   0  1 14.276672 22.842607 11.421136
586   0  1 14.276672 22.842607 14.276672
587   0  1 14.276714 22.842617 17.132097
588   0  1 14.276696 22.842611 19.987357
589   0  1 14.276633 22.842575 22.842575
590   0  1 14.276598 22.842537 25.697829
591   0  1 14.276538 25.697812 28.553116
592   0  1 14.276598 25.697829  2.855271
593   0  1 14.276682 25.697842  5.710483
594   0  1 14.276713 25.697847  8.565721
595   0  1 14.276672 25.697845 11.421136
596   0  1 14.276672 25.697845 14.276672
597   0  1 14.276713 25.697847 17.132087
598   0  1 14.276682 25.697842 19.987325
599   0  1 14.276598 25.697829 22.842537
600   0  1 14.276538 25.697812 25.697812
601   0  1 17.131801 28.553100 28.553100
602   0  1 17.132080 28.553048  2.855137
603   0  1 17.132376 28.553037  5.710181
604   0  1 17.132327 28.553056  8.565481
605   0  1 17.132087 28.553081 11.421095
606   0  1 17.132087 28.553081 14.276713
607   0  1 17.132327 28.553056 17.132327
608   0  1 17.132376 28.553037 19.987627
609   0  1 17.132080 28.553048 22.842671
610   0  1 17.131801 28.553100 25.697828
611   0  1 17.132080  2.855137 28.553048
612   0  1 17.132202  2.855063  2.855063
613   0  1 17.132414  2.855034  5.710143
614   0  1 17.132332  2.855111  8.565476
615   0  1 17.132097  2.855191 11.421094
616   0  1 17.132097  2.855191 14.276714
617   0  1 17.132332  2.855111 17.132332
618   0  1 17.132414  2.855034 19.987665
619   0  1 17.132202  2.855063 22.842745
620   0  1 17.132080  2.855137 25.697880
621   0  1 17.132376  5.710181 28.553037
622   0  1 17.132414  5.710143  2.855034
623   0  1 17.132474  5.710105  5.710105
624   0  1 17.132328  5.710281  8.565480
625   0  1 17.132108  5.710424 11.421094
626   0  1 17.132108  5.710424 14.276714
627   0  1 17.132328  5.710281 17.132328
628   0  1 17.132474  5.710105 19.987703
629   0  1 17.132414  5.710143 22.842774
630   0  1 17.132376  5.710181 25.697891
631   0  1 17.132327  8.565481 28.553056
632   0  1 17.132332  8.565476  2.855111
633   0  1 17.132328  8.565480  5.710281
634   0  1 17.132274  8.565534  8.565534
635   0  1 17.132100  8.565708 11.421105
636   0  1 17.132100  8.565708 14.276703
637   0  1 17.132274  8.565534 17.132274
638   0  1 17.132328  8.565480 19.987527
639   0  1 17.132332  8.565476 22.842697
640   0  1 17.132327  8.565481 25.697872
641   0  1 17.132087 11.421095 28.553081
642   0  1 17.132097 11.421094  2.855191
643   0  1 17.132108 11.421094  5.710424
644   0  1 17.132100 11.421105  8.565708
645   0  1 17.132054 11.421144 11.421144
646   0  1 17.132054 11.421144 14.276664
647   0  1 17.132100 11.421105 17.132100
648   0  1 17.132108 11.421094 19.987384
649   0  1 17.132097 11.421094 22.842617
650   0  1 17.132087 11.421095 25.697847
651   0  1 17.132087 14.276713 28.553081
652   0  1 17.132097 14.276714  2.855191
653   0  1 17.132108 14.276714  5.710424
654   0  1 17.132100 14.276703  8.565708
655   0  1 17.132054 14.276664 11.421144
656   0  1 17.132054 14.276664 14.276664
657   0  1 17.132100 14.276703 17.132100
658   0  1 17.132108 14.276714 19.987384
659   0  1 17.132097 14.276714 22.842617
660   0  1 17.132087 14.276713 25.697847
661   0  1 17.132327 17.132327 28.553056
662   0  1 17.132332 17.132332  2.855111
663   0  1 17.132328 17.132328  5.710281
664   0  1 17.132274 17.132274  8.565534
665   0  1 17.132100 17.132100 11.421105
666   0  1 17.132100 17.132100 14.276703
667   0  1 17.132274 17.132274 17.132274
668   0  1 17.132328 17.132328 19.987527
669   0  1 17.132332 17.132332 22.842697
670   0  1 17.132327 17.132327 25.697872
671   0  1 17.132376 19.987627 28.553037
672   0  1 17.132414 19.987665  2.855034
673   0  1 17.132474 19.987703  5.710105
674   0  1 17.132328 19.987527  8.565480
675   0  1 17.132108 19.987384 11.421094
676   0  1 17.132108 19.987384 14.276714
677   0  1 17.132328 19.987527 17.132328
678   0  1 17.132474 19.987703 19.987703
679   0  1 17.132414 19.987665 22.842774
680   0  1 17.132376 19.987627 25.697891
681   0  1 17.132080 22.842671 28.553048
682   0  1 17.132202 22.842745  2.855063
683   0  1 17.132414 22.842774  5.710143
684   0  1 17.132332 22.842697  8.565476
685   0  1 17.132097 22.842617 11.421094
686   0  1 17.132097 22.842617 14.276714
687   0  1 17.132332 22.842697 17.132332
688   0  1 17.132414 22.842774 19.987665
689   0  1 17.132202 22.842745 22.842745
690   0  1 17.132080 22.842671 25.697880
691   0  1 17.131801 25.697828 28.553100
692   0  1 17.132080 25.697880  2.855137
693   0  1 17.132376 25.697891  5.710181
694   0  1 17.132327 25.697872  8.565481
695   0  1 17.132087 25.697847 11.421095
696   0  1 17.132087 25.697847 14.276713
697   0  1 17.132327 25.697872 17.132327
698   0  1 17.132376 25.697891 19.987627
699   0  1 17.132080 25.697880 22.842671
700   0  1 17.131801 25.697828 25.697828
701   0  1 19.986968  0.000076  0.000076
702   0  1 19.988100 28.552861  2.854553
703   0  1 19.988427 28.552920  5.709381
704   0  1 19.987627 28.553037  8.565432
705   0  1 19.987325 28.553086 11.421126
706   0  1 19.987325 28.553086 14.276682
707   0  1 19.987627 28.553037 17.132376
708   0  1 19.988427 28.552920 19.988427
709   0  1 19.988100 28.552861 22.843255
710   0  1 19.986968  0.000076 25.697732
711   0  1 19.988100  2.854553 28.552861
712   0  1 19.988438  2.854304  2.854304
713   0  1 19.988462  2.854666  5.709346
714   0  1 19.987665  2.855034  8.565394
715   0  1 19.987357  2.855197 11.421112
716   0  1 19.987357  2.855197 14.276696
717   0  1 19.987665  2.855034 17.132414
718   0  1 19.988462  2.854666 19.988462
719   0  1 19.988438  2.854304 22.843504
720   0  1 19.988100  2.854553 25.698067
721   0  1 19.988427  5.709381 28.552920
722   0  1 19.988462  5.709346  2.854666
723   0  1 19.988622  5.709186  5.709186
724   0  1 19.987703  5.710105  8.565334
725   0  1 19.987392  5.710416 11.421090